 Entering Gaussian System, Link 0=g16
 Input=2deoxy_ribofuranose_2endo_alpha_adenine_2opt.gjf
 Output=2deoxy_ribofuranose_2endo_alpha_adenine_2opt.log
 Initial command:
 /opt/software/gaussian/g16.b01/l1.exe "/localscratch/lazaro.40227937.0/Gau-92961.inp" -scrdir="/localscratch/lazaro.40227937.0/"
 Entering Link 1 = /opt/software/gaussian/g16.b01/l1.exe PID=     92963.
  
 Copyright (c) 1988-2017, Gaussian, Inc.  All Rights Reserved.
  
 This is part of the Gaussian(R) 16 program.  It is based on
 the Gaussian(R) 09 system (copyright 2009, Gaussian, Inc.),
 the Gaussian(R) 03 system (copyright 2003, Gaussian, Inc.),
 the Gaussian(R) 98 system (copyright 1998, Gaussian, Inc.),
 the Gaussian(R) 94 system (copyright 1995, Gaussian, Inc.),
 the Gaussian 92(TM) system (copyright 1992, Gaussian, Inc.),
 the Gaussian 90(TM) system (copyright 1990, Gaussian, Inc.),
 the Gaussian 88(TM) system (copyright 1988, Gaussian, Inc.),
 the Gaussian 86(TM) system (copyright 1986, Carnegie Mellon
 University), and the Gaussian 82(TM) system (copyright 1983,
 Carnegie Mellon University). Gaussian is a federally registered
 trademark of Gaussian, Inc.
  
 This software contains proprietary and confidential information,
 including trade secrets, belonging to Gaussian, Inc.
  
 This software is provided under written license and may be
 used, copied, transmitted, or stored only in accord with that
 written license.
  
 The following legend is applicable only to US Government
 contracts under FAR:
  
                    RESTRICTED RIGHTS LEGEND
  
 Use, reproduction and disclosure by the US Government is
 subject to restrictions as set forth in subparagraphs (a)
 and (c) of the Commercial Computer Software - Restricted
 Rights clause in FAR 52.227-19.
  
 Gaussian, Inc.
 340 Quinnipiac St., Bldg. 40, Wallingford CT 06492
  
  
 ---------------------------------------------------------------
 Warning -- This program may not be used in any manner that
 competes with the business of Gaussian, Inc. or will provide
 assistance to any competitor of Gaussian, Inc.  The licensee
 of this program is prohibited from giving any competitor of
 Gaussian, Inc. access to this program.  By using this program,
 the user acknowledges that Gaussian, Inc. is engaged in the
 business of creating and licensing software in the field of
 computational chemistry and represents and warrants to the
 licensee that it is not a competitor of Gaussian, Inc. and that
 it will not use this program in any manner prohibited above.
 ---------------------------------------------------------------
  

 Cite this work as:
 Gaussian 16, Revision B.01,
 M. J. Frisch, G. W. Trucks, H. B. Schlegel, G. E. Scuseria, 
 M. A. Robb, J. R. Cheeseman, G. Scalmani, V. Barone, 
 G. A. Petersson, H. Nakatsuji, X. Li, M. Caricato, A. V. Marenich, 
 J. Bloino, B. G. Janesko, R. Gomperts, B. Mennucci, H. P. Hratchian, 
 J. V. Ortiz, A. F. Izmaylov, J. L. Sonnenberg, D. Williams-Young, 
 F. Ding, F. Lipparini, F. Egidi, J. Goings, B. Peng, A. Petrone, 
 T. Henderson, D. Ranasinghe, V. G. Zakrzewski, J. Gao, N. Rega, 
 G. Zheng, W. Liang, M. Hada, M. Ehara, K. Toyota, R. Fukuda, 
 J. Hasegawa, M. Ishida, T. Nakajima, Y. Honda, O. Kitao, H. Nakai, 
 T. Vreven, K. Throssell, J. A. Montgomery, Jr., J. E. Peralta, 
 F. Ogliaro, M. J. Bearpark, J. J. Heyd, E. N. Brothers, K. N. Kudin, 
 V. N. Staroverov, T. A. Keith, R. Kobayashi, J. Normand, 
 K. Raghavachari, A. P. Rendell, J. C. Burant, S. S. Iyengar, 
 J. Tomasi, M. Cossi, J. M. Millam, M. Klene, C. Adamo, R. Cammi, 
 J. W. Ochterski, R. L. Martin, K. Morokuma, O. Farkas, 
 J. B. Foresman, and D. J. Fox, Gaussian, Inc., Wallingford CT, 2016.
 
 ******************************************
 Gaussian 16:  ES64L-G16RevB.01 20-Dec-2017
                24-Jul-2022 
 ******************************************
 %nprocshared=16
 Will use up to   16 processors via shared memory.
 %mem=16GB
 %chk=2deoxy_ribofuranose_2endo_alpha_adenine_min.chk
 ----------------------------------------------------------------------
 # opt=(tight,readfc) freq geom=allcheck guess=read int=ultrafine b3lyp
 /6-311++g(d,p) scf=maxcycle=1600
 ----------------------------------------------------------------------
 1/7=10,10=3,18=20,19=15,26=4,29=7,38=1/1,3;
 2/9=110,12=2,40=1/2;
 3/5=4,6=6,7=1111,11=2,14=-4,25=1,30=1,71=1,74=-5,75=-5,116=-2/1,2,3;
 4/5=1/1;
 5/5=2,7=1600,38=6/2;
 6/7=2,8=2,9=2,10=2,28=1/1;
 7//1,2,3,16;
 1/7=10,18=20,19=15,26=4/3(2);
 2/9=110/2;
 99//99;
 2/9=110/2;
 3/5=4,6=6,7=1111,11=2,14=-2,25=1,30=1,71=1,74=-5,75=-5/1,2,3;
 4/5=5,16=3,69=1/1;
 5/5=2,7=1600,38=5/2;
 7//1,2,3,16;
 1/7=10,18=20,19=15,26=4/3(-5);
 2/9=110/2;
 6/7=2,8=2,9=2,10=2,19=2,28=1/1;
 99/9=1/99;
 Structure from the checkpoint file:  "2deoxy_ribofuranose_2endo_alpha_adenine_min.chk"
 ----------------------------------------------------------------------
 Opt and freq optimization for PES minimum (min#3) of 2deoxy_ribofurano
 se_2endo_alpha_adenine in vacuum environment
 ----------------------------------------------------------------------
 Charge =  0 Multiplicity = 1
 Redundant internal coordinates found in file.  (old form).
 O,0,-4.4914626798,-1.5022960655,0.4614478617
 C,0,-3.8895763504,-0.5504302271,1.3271755072
 C,0,-2.6702070893,0.1088889587,0.6976009459
 O,0,-1.710831345,-0.9312078969,0.4397244393
 C,0,-2.9230297733,0.8233036374,-0.6585775714
 O,0,-2.6369053488,2.2267679585,-0.59508913
 C,0,-1.9314261037,0.1543550822,-1.6226351685
 C,0,-0.9549162176,-0.6176046491,-0.7229512627
 H,0,-3.8388014631,-2.1942347144,0.3026832795
 H,0,-4.6501663954,0.206312944,1.5378071062
 H,0,-3.5996359579,-1.010941705,2.2794122444
 H,0,-2.2457994017,0.8379994283,1.4009683352
 H,0,-3.9523341845,0.6710474189,-0.9906964255
 H,0,-2.4563473196,-0.566137807,-2.2511313411
 H,0,-0.6234563297,-1.5648661461,-1.1447143763
 H,0,-3.3641837276,2.6814534548,-0.1586769638
 H,0,-1.4489867514,0.8853311484,-2.2703361049
 N,0,0.2738681633,0.1053653123,-0.4052647062
 C,0,0.4708498739,1.4501510424,-0.1189791133
 N,0,1.7037074467,1.7387208159,0.2117604346
 C,0,2.3695390895,0.5279473697,0.1492998792
 C,0,3.7085816297,0.1587032219,0.3799838221
 N,0,4.0570510771,-1.1296036358,0.2329232724
 C,0,3.1162181306,-2.009998903,-0.1376947092
 N,0,1.8247555043,-1.7870951587,-0.3881220592
 C,0,1.5054481384,-0.5002588715,-0.2253809564
 H,0,-0.342194115,2.1583019767,-0.1845258913
 H,0,3.4541839943,-3.0360826138,-0.2458529074
 N,0,4.6587198322,1.0586609071,0.7297362777
 H,0,4.3993840326,2.0088465483,0.9350976481
 H,0,5.5774496413,0.7244181683,0.9689866337
 Recover connectivity data from disk.

 GradGradGradGradGradGradGradGradGradGradGradGradGradGradGradGradGradGrad
 Berny optimization.
 Initialization pass.
 Force constant matrix read from checkpoint file:
 "2deoxy_ribofuranose_2endo_alpha_adenine_min.chk"
                           ----------------------------
                           !    Initial Parameters    !
                           ! (Angstroms and Degrees)  !
 --------------------------                            --------------------------
 ! Name  Definition              Value          Derivative Info.                !
 --------------------------------------------------------------------------------
 ! R1    R(1,2)                  1.4205         D2E/DX2 =    0.3397             !
 ! R2    R(1,9)                  0.9643         D2E/DX2 =    0.5221             !
 ! R3    R(2,3)                  1.5225         D2E/DX2 =    0.2755             !
 ! R4    R(2,10)                 1.0934         D2E/DX2 =    0.3337             !
 ! R5    R(2,11)                 1.0968         D2E/DX2 =    0.3237             !
 ! R6    R(3,4)                  1.4383         D2E/DX2 =    0.2437             !
 ! R7    R(3,5)                  1.5536         D2E/DX2 =    0.2006             !
 ! R8    R(3,12)                 1.0984         D2E/DX2 =    0.3192             !
 ! R9    R(4,8)                  1.4218         D2E/DX2 =    0.2452             !
 ! R10   R(5,6)                  1.4337         D2E/DX2 =    0.3154             !
 ! R11   R(5,7)                  1.5363         D2E/DX2 =    0.2369             !
 ! R12   R(5,13)                 1.0922         D2E/DX2 =    0.3318             !
 ! R13   R(6,16)                 0.9624         D2E/DX2 =    0.5292             !
 ! R14   R(7,8)                  1.5359         D2E/DX2 =    0.2196             !
 ! R15   R(7,14)                 1.0907         D2E/DX2 =    0.3387             !
 ! R16   R(7,17)                 1.0893         D2E/DX2 =    0.3438             !
 ! R17   R(8,15)                 1.0886         D2E/DX2 =    0.3443             !
 ! R18   R(8,18)                 1.4607         D2E/DX2 =    0.295              !
 ! R19   R(18,19)                1.389          D2E/DX2 =    0.3027             !
 ! R20   R(18,26)                1.3842         D2E/DX2 =    0.3477             !
 ! R21   R(19,20)                1.3087         D2E/DX2 =    0.4609             !
 ! R22   R(19,27)                1.0802         D2E/DX2 =    0.3682             !
 ! R23   R(20,21)                1.3832         D2E/DX2 =    0.3174             !
 ! R24   R(21,22)                1.408          D2E/DX2 =    0.3769             !
 ! R25   R(21,26)                1.3944         D2E/DX2 =    0.3069             !
 ! R26   R(22,23)                1.3427         D2E/DX2 =    0.4255             !
 ! R27   R(22,29)                1.3546         D2E/DX2 =    0.4762             !
 ! R28   R(23,24)                1.3408         D2E/DX2 =    0.4031             !
 ! R29   R(24,25)                1.3343         D2E/DX2 =    0.4289             !
 ! R30   R(24,28)                1.0857         D2E/DX2 =    0.3538             !
 ! R31   R(25,26)                1.3358         D2E/DX2 =    0.4299             !
 ! R32   R(29,30)                1.0061         D2E/DX2 =    0.4813             !
 ! R33   R(29,31)                1.0065         D2E/DX2 =    0.4799             !
 ! A1    A(2,1,9)              107.1203         D2E/DX2 =    0.1831             !
 ! A2    A(1,2,3)              112.1806         D2E/DX2 =    0.1671             !
 ! A3    A(1,2,10)             106.6445         D2E/DX2 =    0.0609             !
 ! A4    A(1,2,11)             111.0877         D2E/DX2 =    0.0669             !
 ! A5    A(3,2,10)             109.6985         D2E/DX2 =    0.0711             !
 ! A6    A(3,2,11)             109.2161         D2E/DX2 =    0.0724             !
 ! A7    A(10,2,11)            107.893          D2E/DX2 =    0.0274             !
 ! A8    A(2,3,4)              107.1698         D2E/DX2 =    0.0539             !
 ! A9    A(2,3,5)              115.4542         D2E/DX2 =    0.0649             !
 ! A10   A(2,3,12)             109.3979         D2E/DX2 =    0.0315             !
 ! A11   A(4,3,5)              106.5337         D2E/DX2 =    0.0526             !
 ! A12   A(4,3,12)             109.7006         D2E/DX2 =    0.0173             !
 ! A13   A(5,3,12)             108.4595         D2E/DX2 =    0.0276             !
 ! A14   A(3,4,8)              109.9828         D2E/DX2 =    0.0717             !
 ! A15   A(3,5,6)              112.2727         D2E/DX2 =    0.0423             !
 ! A16   A(3,5,7)              104.0354         D2E/DX2 =    0.0578             !
 ! A17   A(3,5,13)             110.7752         D2E/DX2 =    0.0238             !
 ! A18   A(6,5,7)              108.9786         D2E/DX2 =    0.0456             !
 ! A19   A(6,5,13)             109.7545         D2E/DX2 =    0.0245             !
 ! A20   A(7,5,13)             110.9012         D2E/DX2 =    0.0225             !
 ! A21   A(5,6,16)             109.3756         D2E/DX2 =    0.1716             !
 ! A22   A(5,7,8)              105.1677         D2E/DX2 =    0.0637             !
 ! A23   A(5,7,14)             109.7912         D2E/DX2 =    0.0298             !
 ! A24   A(5,7,17)             111.518          D2E/DX2 =    0.0315             !
 ! A25   A(8,7,14)             108.1504         D2E/DX2 =    0.0293             !
 ! A26   A(8,7,17)             113.8282         D2E/DX2 =    0.0317             !
 ! A27   A(14,7,17)            108.2881         D2E/DX2 =    0.0159             !
 ! A28   A(4,8,7)              104.5869         D2E/DX2 =    0.0611             !
 ! A29   A(4,8,15)             106.6648         D2E/DX2 =    0.0243             !
 ! A30   A(4,8,18)             112.2453         D2E/DX2 =    0.0537             !
 ! A31   A(7,8,15)             113.8283         D2E/DX2 =    0.0323             !
 ! A32   A(7,8,18)             114.4246         D2E/DX2 =    0.0918             !
 ! A33   A(15,8,18)            104.9998         D2E/DX2 =    0.0455             !
 ! A34   A(8,18,19)            130.0425         D2E/DX2 =    0.1177             !
 ! A35   A(8,18,26)            124.0707         D2E/DX2 =    0.1189             !
 ! A36   A(19,18,26)           105.7029         D2E/DX2 =    0.1013             !
 ! A37   A(18,19,20)           113.5276         D2E/DX2 =    0.1164             !
 ! A38   A(18,19,27)           121.0293         D2E/DX2 =    0.0945             !
 ! A39   A(20,19,27)           125.4407         D2E/DX2 =    0.0912             !
 ! A40   A(19,20,21)           104.4217         D2E/DX2 =    0.125              !
 ! A41   A(20,21,22)           132.8388         D2E/DX2 =    0.101              !
 ! A42   A(20,21,26)           111.0578         D2E/DX2 =    0.1034             !
 ! A43   A(22,21,26)           116.1027         D2E/DX2 =    0.0826             !
 ! A44   A(21,22,23)           118.7173         D2E/DX2 =    0.1068             !
 ! A45   A(21,22,29)           122.3513         D2E/DX2 =    0.1292             !
 ! A46   A(23,22,29)           118.9271         D2E/DX2 =    0.1443             !
 ! A47   A(22,23,24)           118.5684         D2E/DX2 =    0.1196             !
 ! A48   A(23,24,25)           128.4177         D2E/DX2 =    0.1258             !
 ! A49   A(23,24,28)           115.4474         D2E/DX2 =    0.1043             !
 ! A50   A(25,24,28)           116.1349         D2E/DX2 =    0.1049             !
 ! A51   A(24,25,26)           111.6809         D2E/DX2 =    0.1189             !
 ! A52   A(18,26,21)           105.2878         D2E/DX2 =    0.0974             !
 ! A53   A(18,26,25)           128.1955         D2E/DX2 =    0.1153             !
 ! A54   A(21,26,25)           126.5107         D2E/DX2 =    0.0996             !
 ! A55   A(22,29,30)           119.9557         D2E/DX2 =    0.0842             !
 ! A56   A(22,29,31)           118.7502         D2E/DX2 =    0.0812             !
 ! A57   A(30,29,31)           120.0257         D2E/DX2 =    0.0714             !
 ! D1    D(9,1,2,3)             62.3606         D2E/DX2 =    0.0176             !
 ! D2    D(9,1,2,10)          -177.5194         D2E/DX2 =    0.0234             !
 ! D3    D(9,1,2,11)           -60.1982         D2E/DX2 =    0.0233             !
 ! D4    D(1,2,3,4)            -61.4625         D2E/DX2 =    0.0198             !
 ! D5    D(1,2,3,5)             57.0236         D2E/DX2 =    0.0177             !
 ! D6    D(1,2,3,12)           179.6653         D2E/DX2 =    0.0161             !
 ! D7    D(10,2,3,4)          -179.7903         D2E/DX2 =    0.018              !
 ! D8    D(10,2,3,5)           -61.3042         D2E/DX2 =    0.0155             !
 ! D9    D(10,2,3,12)           61.3375         D2E/DX2 =    0.0148             !
 ! D10   D(11,2,3,4)            62.1505         D2E/DX2 =    0.018              !
 ! D11   D(11,2,3,5)          -179.3634         D2E/DX2 =    0.0162             !
 ! D12   D(11,2,3,12)          -56.7217         D2E/DX2 =    0.0151             !
 ! D13   D(2,3,4,8)            147.6551         D2E/DX2 =    0.031              !
 ! D14   D(5,3,4,8)             23.5329         D2E/DX2 =    0.013              !
 ! D15   D(12,3,4,8)           -93.6684         D2E/DX2 =    0.02               !
 ! D16   D(2,3,5,6)            118.8003         D2E/DX2 =    0.021              !
 ! D17   D(2,3,5,7)           -123.5129         D2E/DX2 =    0.0192             !
 ! D18   D(2,3,5,13)            -4.2941         D2E/DX2 =    0.0153             !
 ! D19   D(4,3,5,6)           -122.3611         D2E/DX2 =    0.0259             !
 ! D20   D(4,3,5,7)             -4.6744         D2E/DX2 =    0.0104             !
 ! D21   D(4,3,5,13)           114.5444         D2E/DX2 =    0.0172             !
 ! D22   D(12,3,5,6)            -4.3391         D2E/DX2 =    0.0186             !
 ! D23   D(12,3,5,7)           113.3477         D2E/DX2 =    0.0147             !
 ! D24   D(12,3,5,13)         -127.4335         D2E/DX2 =    0.0141             !
 ! D25   D(3,4,8,7)            -32.3202         D2E/DX2 =    0.0107             !
 ! D26   D(3,4,8,15)          -153.2279         D2E/DX2 =    0.023              !
 ! D27   D(3,4,8,18)            92.2953         D2E/DX2 =    0.0514             !
 ! D28   D(3,5,6,16)           -78.0099         D2E/DX2 =    0.0141             !
 ! D29   D(7,5,6,16)           167.2819         D2E/DX2 =    0.014              !
 ! D30   D(13,5,6,16)           45.6565         D2E/DX2 =    0.0098             !
 ! D31   D(3,5,7,8)            -13.7766         D2E/DX2 =    0.0102             !
 ! D32   D(3,5,7,14)           102.3635         D2E/DX2 =    0.0171             !
 ! D33   D(3,5,7,17)          -137.6128         D2E/DX2 =    0.0165             !
 ! D34   D(6,5,7,8)            106.1644         D2E/DX2 =    0.0238             !
 ! D35   D(6,5,7,14)          -137.6954         D2E/DX2 =    0.0212             !
 ! D36   D(6,5,7,17)           -17.6717         D2E/DX2 =    0.0189             !
 ! D37   D(13,5,7,8)          -132.9096         D2E/DX2 =    0.0151             !
 ! D38   D(13,5,7,14)          -16.7694         D2E/DX2 =    0.0151             !
 ! D39   D(13,5,7,17)          103.2543         D2E/DX2 =    0.0145             !
 ! D40   D(5,7,8,4)             27.811          D2E/DX2 =    0.0118             !
 ! D41   D(5,7,8,15)           143.8426         D2E/DX2 =    0.0165             !
 ! D42   D(5,7,8,18)           -95.4062         D2E/DX2 =    0.0241             !
 ! D43   D(14,7,8,4)           -89.4506         D2E/DX2 =    0.0179             !
 ! D44   D(14,7,8,15)           26.581          D2E/DX2 =    0.0155             !
 ! D45   D(14,7,8,18)          147.3322         D2E/DX2 =    0.0209             !
 ! D46   D(17,7,8,4)           150.1663         D2E/DX2 =    0.0174             !
 ! D47   D(17,7,8,15)          -93.8021         D2E/DX2 =    0.0145             !
 ! D48   D(17,7,8,18)           26.9491         D2E/DX2 =    0.018              !
 ! D49   D(4,8,18,19)          -79.9909         D2E/DX2 =    0.0161             !
 ! D50   D(4,8,18,26)           94.3524         D2E/DX2 =    0.016              !
 ! D51   D(7,8,18,19)           38.995          D2E/DX2 =    0.0122             !
 ! D52   D(7,8,18,26)         -146.6617         D2E/DX2 =    0.012              !
 ! D53   D(15,8,18,19)         164.5189         D2E/DX2 =    0.0114             !
 ! D54   D(15,8,18,26)         -21.1377         D2E/DX2 =    0.0107             !
 ! D55   D(8,18,19,20)         175.5547         D2E/DX2 =    0.0087             !
 ! D56   D(8,18,19,27)          -4.9764         D2E/DX2 =    0.0073             !
 ! D57   D(26,18,19,20)          0.42           D2E/DX2 =    0.0134             !
 ! D58   D(26,18,19,27)        179.8889         D2E/DX2 =    0.0095             !
 ! D59   D(8,18,26,21)        -175.9575         D2E/DX2 =    0.0056             !
 ! D60   D(8,18,26,25)           4.8919         D2E/DX2 =    0.0042             !
 ! D61   D(19,18,26,21)         -0.4532         D2E/DX2 =    0.0083             !
 ! D62   D(19,18,26,25)       -179.6039         D2E/DX2 =    0.0054             !
 ! D63   D(18,19,20,21)         -0.1878         D2E/DX2 =    0.0143             !
 ! D64   D(27,19,20,21)       -179.6292         D2E/DX2 =    0.0115             !
 ! D65   D(19,20,21,22)        179.5673         D2E/DX2 =    0.0068             !
 ! D66   D(19,20,21,26)         -0.1199         D2E/DX2 =    0.0119             !
 ! D67   D(20,21,22,23)       -179.9316         D2E/DX2 =    0.0077             !
 ! D68   D(20,21,22,29)         -0.6919         D2E/DX2 =    0.0094             !
 ! D69   D(26,21,22,23)         -0.2567         D2E/DX2 =    0.0062             !
 ! D70   D(26,21,22,29)        178.983          D2E/DX2 =    0.0084             !
 ! D71   D(20,21,26,18)          0.3697         D2E/DX2 =    0.0092             !
 ! D72   D(20,21,26,25)        179.5392         D2E/DX2 =    0.005              !
 ! D73   D(22,21,26,18)       -179.3749         D2E/DX2 =    0.0056             !
 ! D74   D(22,21,26,25)         -0.2054         D2E/DX2 =    0.0054             !
 ! D75   D(21,22,23,24)          0.4939         D2E/DX2 =    0.0082             !
 ! D76   D(29,22,23,24)       -178.7723         D2E/DX2 =    0.0093             !
 ! D77   D(21,22,29,30)          6.9563         D2E/DX2 =    0.0058             !
 ! D78   D(21,22,29,31)        174.1003         D2E/DX2 =    0.0078             !
 ! D79   D(23,22,29,30)       -173.8055         D2E/DX2 =    0.0084             !
 ! D80   D(23,22,29,31)         -6.6615         D2E/DX2 =    0.0068             !
 ! D81   D(22,23,24,25)         -0.3269         D2E/DX2 =    0.0166             !
 ! D82   D(22,23,24,28)        179.7263         D2E/DX2 =    0.0237             !
 ! D83   D(23,24,25,26)         -0.1055         D2E/DX2 =    0.0168             !
 ! D84   D(28,24,25,26)        179.8409         D2E/DX2 =    0.0248             !
 ! D85   D(24,25,26,18)        179.3546         D2E/DX2 =    0.0107             !
 ! D86   D(24,25,26,21)          0.3739         D2E/DX2 =    0.0085             !
 --------------------------------------------------------------------------------
 Trust Radius=3.00D-01 FncErr=1.00D-07 GrdErr=1.00D-06 EigMax=2.50D+02 EigMin=1.00D-04
 Number of steps in this run=    186 maximum allowed number of steps=    186.
 GradGradGradGradGradGradGradGradGradGradGradGradGradGradGradGradGradGrad

                          Input orientation:                          
 ---------------------------------------------------------------------
 Center     Atomic      Atomic             Coordinates (Angstroms)
 Number     Number       Type             X           Y           Z
 ---------------------------------------------------------------------
      1          8           0       -4.491463   -1.502296    0.461448
      2          6           0       -3.889576   -0.550430    1.327176
      3          6           0       -2.670207    0.108889    0.697601
      4          8           0       -1.710831   -0.931208    0.439724
      5          6           0       -2.923030    0.823304   -0.658578
      6          8           0       -2.636905    2.226768   -0.595089
      7          6           0       -1.931426    0.154355   -1.622635
      8          6           0       -0.954916   -0.617605   -0.722951
      9          1           0       -3.838801   -2.194235    0.302683
     10          1           0       -4.650166    0.206313    1.537807
     11          1           0       -3.599636   -1.010942    2.279412
     12          1           0       -2.245799    0.837999    1.400968
     13          1           0       -3.952334    0.671047   -0.990696
     14          1           0       -2.456347   -0.566138   -2.251131
     15          1           0       -0.623456   -1.564866   -1.144714
     16          1           0       -3.364184    2.681453   -0.158677
     17          1           0       -1.448987    0.885331   -2.270336
     18          7           0        0.273868    0.105365   -0.405265
     19          6           0        0.470850    1.450151   -0.118979
     20          7           0        1.703707    1.738721    0.211760
     21          6           0        2.369539    0.527947    0.149300
     22          6           0        3.708582    0.158703    0.379984
     23          7           0        4.057051   -1.129604    0.232923
     24          6           0        3.116218   -2.009999   -0.137695
     25          7           0        1.824756   -1.787095   -0.388122
     26          6           0        1.505448   -0.500259   -0.225381
     27          1           0       -0.342194    2.158302   -0.184526
     28          1           0        3.454184   -3.036083   -0.245853
     29          7           0        4.658720    1.058661    0.729736
     30          1           0        4.399384    2.008847    0.935098
     31          1           0        5.577450    0.724418    0.968987
 ---------------------------------------------------------------------
                    Distance matrix (angstroms):
                    1          2          3          4          5
     1  O    0.000000
     2  C    1.420493   0.000000
     3  C    2.443084   1.522474   0.000000
     4  O    2.838754   2.383168   1.438299   0.000000
     5  C    3.020406   2.600879   1.553553   2.398750   0.000000
     6  O    4.296693   3.602376   2.481445   3.449821   1.433740
     7  C    3.693465   3.610050   2.435438   2.341033   1.536287
     8  C    3.833098   3.580470   2.342645   1.421819   2.440047
     9  H    0.964340   1.937590   2.612652   2.478361   3.296695
    10  H    2.025606   1.093400   2.153062   3.337578   2.861430
    11  H    2.083693   1.096764   2.149415   2.637876   3.529028
    12  H    3.376786   2.152948   1.098385   2.083333   2.168084
    13  H    2.668858   2.620778   2.193221   3.104458   1.092224
    14  H    3.517979   3.854695   3.032560   2.815986   2.164386
    15  H    4.188693   4.219818   3.222541   2.023451   3.350779
    16  H    4.377108   3.595673   2.798732   4.017833   1.974142
    17  H    4.734983   4.578207   3.301953   3.273042   2.185044
    18  N    5.103346   4.556938   3.143868   2.393224   3.286299
    19  C    5.803308   5.010689   3.511698   3.277614   3.493211
    20  N    6.996189   6.145664   4.692922   4.340456   4.796058
    21  C    7.161890   6.459630   5.086776   4.343144   5.362013
    22  C    8.366976   7.689736   6.386886   5.528247   6.745263
    23  N    8.559685   8.042494   6.856077   5.774997   7.302749
    24  C    7.648107   7.304611   6.218530   4.979720   6.691146
    25  N    6.379459   6.093043   4.997823   3.730717   5.424831
    26  C    6.118721   5.614200   4.319613   3.312482   4.642294
    27  H    5.570789   4.712366   3.224575   3.436267   2.944089
    28  H    8.123181   7.910986   6.949037   5.619421   7.465525
    29  N    9.505594   8.718915   7.390282   6.679436   7.711403
    30  H    9.570769   8.683921   7.324299   6.798827   7.587032
    31  H   10.324672   9.559190   8.275045   7.492680   8.655455
                    6          7          8          9         10
     6  O    0.000000
     7  C    2.418356   0.000000
     8  C    3.306946   1.535879   0.000000
     9  H    4.668599   3.586197   3.443034   0.000000
    10  H    3.561559   4.169250   4.409619   2.818949   0.000000
    11  H    4.435355   4.400774   4.020378   2.316212   1.770678
    12  H    2.462902   3.115827   2.880312   3.596989   2.489726
    13  H    2.075361   2.179538   3.273656   3.145721   2.663884
    14  H    3.251984   1.090715   2.142960   3.329241   4.445849
    15  H    4.328112   2.212445   1.088602   3.581830   5.152416
    16  H    0.962356   3.253028   4.123925   4.920412   3.264679
    17  H    2.452969   1.089307   2.212989   4.670693   5.021013
    18  N    3.606797   2.519467   1.460658   4.764809   5.294510
    19  C    3.238512   3.116248   2.583255   5.659721   5.524209
    20  N    4.441859   4.369144   3.673450   6.796750   6.669212
    21  C    5.338969   4.666650   3.622860   6.780656   7.162937
    22  C    6.744840   5.984997   4.854620   7.906028   8.438690
    23  N    7.533916   6.399493   5.127929   7.967609   8.905225
    24  C    7.159458   5.689305   4.342283   6.971382   8.248398
    25  N    6.005027   4.404787   3.034204   5.720040   7.043259
    26  C    4.973173   3.767352   2.512914   5.631111   6.442023
    27  H    2.332156   2.934215   2.893266   5.604303   5.033420
    28  H    8.057353   6.409307   5.051418   7.361877   8.909269
    29  N    7.506383   7.055597   6.035982   9.108873   9.382688
    30  H    7.204050   7.075330   6.189984   9.270035   9.246986
    31  H    8.495823   7.963962   6.880079   9.880702  10.256516
                   11         12         13         14         15
    11  H    0.000000
    12  H    2.454205   0.000000
    13  H    3.694197   2.942821   0.000000
    14  H    4.693696   3.918388   2.314584   0.000000
    15  H    4.570462   3.858272   4.013036   2.362436   0.000000
    16  H    4.430970   2.661128   2.253866   3.968549   5.149280
    17  H    5.377858   3.757077   2.819600   1.766892   2.819928
    18  N    4.843311   3.185586   4.303895   3.363364   2.035104
    19  C    5.327111   3.172563   4.575090   4.144874   3.367487
    20  N    6.321493   4.221862   5.880190   5.355769   4.262558
    21  C    6.522010   4.792093   6.425430   5.499843   3.874579
    22  C    7.641069   6.079351   7.799416   6.741996   4.905298
    23  N    7.926352   6.705350   8.299990   6.993739   4.898417
    24  C    7.207164   6.263371   7.607894   6.132278   3.898384
    25  N    6.094438   5.163466   6.307165   4.825907   2.572073
    26  C    5.709349   4.302070   5.634275   4.450149   2.551626
    27  H    5.169722   2.807259   3.986847   4.020333   3.855263
    28  H    7.761091   7.085926   8.315895   6.712388   4.427141
    29  N    8.653623   6.940578   8.789789   7.883510   6.188525
    30  H    8.655092   6.763607   8.674652   7.986467   6.505841
    31  H    9.431203   7.835990   9.729336   8.750805   6.939725
                   16         17         18         19         20
    16  H    0.000000
    17  H    3.369442   0.000000
    18  N    4.464578   2.656138   0.000000
    19  C    4.028047   2.938219   1.388960   0.000000
    20  N    5.168122   4.102263   2.256770   1.308663   0.000000
    21  C    6.132537   4.534700   2.208609   2.127781   1.383187
    22  C    7.528508   5.844031   3.523736   3.521322   2.558178
    23  N    8.351780   6.375164   4.030497   4.431682   3.710251
    24  C    8.000361   5.811385   3.553212   4.355567   4.021219
    25  N    6.851690   4.626227   2.446825   3.519270   3.578532
    26  C    5.817307   3.851024   1.384171   2.210388   2.289854
    27  H    3.067047   2.682545   2.154717   1.080192   2.125748
    28  H    8.898762   6.596749   4.473088   5.389125   5.106107
    29  N    8.233451   6.806949   4.628598   4.290902   3.076179
    30  H    7.869036   6.763175   4.737055   4.105679   2.804079
    31  H    9.222495   7.738857   5.513599   5.271406   4.075301
                   21         22         23         24         25
    21  C    0.000000
    22  C    1.408045   0.000000
    23  N    2.366889   1.342681   0.000000
    24  C    2.661027   2.306980   1.340754   0.000000
    25  N    2.438244   2.815123   2.408555   1.334270   0.000000
    26  C    1.394363   2.377918   2.667732   2.209431   1.335810
    27  H    3.181665   4.552565   5.507989   5.416414   4.505916
    28  H    3.746320   3.265432   2.056049   1.085710   2.057972
    29  N    2.420519   1.354627   2.323215   3.542375   4.168847
    30  H    2.632643   2.051436   3.234209   4.352989   4.773761
    31  H    3.316802   2.039516   2.508146   3.841802   4.715099
                   26         27         28         29         30
    26  C    0.000000
    27  H    3.237807   0.000000
    28  H    3.198186   6.434118   0.000000
    29  N    3.644942   5.201368   4.378311   0.000000
    30  H    4.002148   4.874265   5.266817   1.006122   0.000000
    31  H    4.416735   6.199096   4.486141   1.006491   1.743199
                   31
    31  H    0.000000
 Stoichiometry    C10H13N5O3
 Framework group  C1[X(C10H13N5O3)]
 Deg. of freedom    87
 Full point group                 C1      NOp   1
 Largest Abelian subgroup         C1      NOp   1
 Largest concise Abelian subgroup C1      NOp   1
                         Standard orientation:                         
 ---------------------------------------------------------------------
 Center     Atomic      Atomic             Coordinates (Angstroms)
 Number     Number       Type             X           Y           Z
 ---------------------------------------------------------------------
      1          8           0        4.443248   -1.561350   -0.419152
      2          6           0        3.834902   -0.675282   -1.347913
      3          6           0        2.632964    0.045004   -0.752547
      4          8           0        1.668795   -0.961013   -0.396162
      5          6           0        2.916286    0.862627    0.537704
      6          8           0        2.641976    2.259496    0.367056
      7          6           0        1.935796    0.283233    1.568781
      8          6           0        0.936478   -0.547685    0.750329
      9          1           0        3.787175   -2.231485   -0.194566
     10          1           0        4.598560    0.054169   -1.631198
     11          1           0        3.523946   -1.207207   -2.255246
     12          1           0        2.202889    0.720118   -1.504682
     13          1           0        3.949865    0.726490    0.863488
     14          1           0        2.465119   -0.390326    2.243906
     15          1           0        0.603852   -1.454726    1.252018
     16          1           0        3.365563    2.670209   -0.116541
     17          1           0        1.471620    1.068607    2.164027
     18          7           0       -0.291047    0.160573    0.396672
     19          6           0       -0.480712    1.480237    0.007157
     20          7           0       -1.716528    1.754506   -0.324710
     21          6           0       -2.392235    0.559675   -0.154402
     22          6           0       -3.738481    0.187367   -0.332161
     23          7           0       -4.096104   -1.081348   -0.076702
     24          6           0       -3.156981   -1.939257    0.347163
     25          7           0       -1.859299   -1.710737    0.557103
     26          6           0       -1.531123   -0.444431    0.286626
     27          1           0        0.339829    2.182734    0.002125
     28          1           0       -3.502384   -2.949814    0.542708
     29          7           0       -4.686359    1.066538   -0.736637
     30          1           0       -4.421987    1.994519   -1.021663
     31          1           0       -5.612206    0.723995   -0.932836
 ---------------------------------------------------------------------
 Rotational constants (GHZ):           0.9998222           0.2316414           0.2065219
 Standard basis: 6-311++G(d,p) (5D, 7F)
 There are   505 symmetry adapted cartesian basis functions of A   symmetry.
 There are   487 symmetry adapted basis functions of A   symmetry.
   487 basis functions,   765 primitive gaussians,   505 cartesian basis functions
    66 alpha electrons       66 beta electrons
       nuclear repulsion energy      1363.3792654449 Hartrees.
 NAtoms=   31 NActive=   31 NUniq=   31 SFac= 1.00D+00 NAtFMM=   60 NAOKFM=F Big=F
 Integral buffers will be    131072 words long.
 Raffenetti 2 integral format.
 Two-electron integral symmetry is turned on.
 One-electron integrals computed using PRISM.
 NBasis=   487 RedAO= T EigKep=  1.14D-06  NBF=   487
 NBsUse=   487 1.00D-06 EigRej= -1.00D+00 NBFU=   487
 Initial guess from the checkpoint file:  "2deoxy_ribofuranose_2endo_alpha_adenine_min.chk"
 B after Tr=    -0.000000    0.000000    0.000000
         Rot=    1.000000    0.000000    0.000000   -0.000000 Ang=   0.00 deg.
 Requested convergence on RMS density matrix=1.00D-08 within1600 cycles.
 Requested convergence on MAX density matrix=1.00D-06.
 Requested convergence on             energy=1.00D-06.
 No special actions if energy rises.
 SCF Done:  E(RB3LYP) =  -888.579064073     A.U. after    1 cycles
            NFock=  1  Conv=0.19D-08     -V/T= 2.0038

 **********************************************************************

            Population analysis using the SCF Density.

 **********************************************************************

 Orbital symmetries:
       Occupied  (A) (A) (A) (A) (A) (A) (A) (A) (A) (A) (A) (A)
                 (A) (A) (A) (A) (A) (A) (A) (A) (A) (A) (A) (A)
                 (A) (A) (A) (A) (A) (A) (A) (A) (A) (A) (A) (A)
                 (A) (A) (A) (A) (A) (A) (A) (A) (A) (A) (A) (A)
                 (A) (A) (A) (A) (A) (A) (A) (A) (A) (A) (A) (A)
                 (A) (A) (A) (A) (A) (A)
       Virtual   (A) (A) (A) (A) (A) (A) (A) (A) (A) (A) (A) (A)
                 (A) (A) (A) (A) (A) (A) (A) (A) (A) (A) (A) (A)
                 (A) (A) (A) (A) (A) (A) (A) (A) (A) (A) (A) (A)
                 (A) (A) (A) (A) (A) (A) (A) (A) (A) (A) (A) (A)
                 (A) (A) (A) (A) (A) (A) (A) (A) (A) (A) (A) (A)
                 (A) (A) (A) (A) (A) (A) (A) (A) (A) (A) (A) (A)
                 (A) (A) (A) (A) (A) (A) (A) (A) (A) (A) (A) (A)
                 (A) (A) (A) (A) (A) (A) (A) (A) (A) (A) (A) (A)
                 (A) (A) (A) (A) (A) (A) (A) (A) (A) (A) (A) (A)
                 (A) (A) (A) (A) (A) (A) (A) (A) (A) (A) (A) (A)
                 (A) (A) (A) (A) (A) (A) (A) (A) (A) (A) (A) (A)
                 (A) (A) (A) (A) (A) (A) (A) (A) (A) (A) (A) (A)
                 (A) (A) (A) (A) (A) (A) (A) (A) (A) (A) (A) (A)
                 (A) (A) (A) (A) (A) (A) (A) (A) (A) (A) (A) (A)
                 (A) (A) (A) (A) (A) (A) (A) (A) (A) (A) (A) (A)
                 (A) (A) (A) (A) (A) (A) (A) (A) (A) (A) (A) (A)
                 (A) (A) (A) (A) (A) (A) (A) (A) (A) (A) (A) (A)
                 (A) (A) (A) (A) (A) (A) (A) (A) (A) (A) (A) (A)
                 (A) (A) (A) (A) (A) (A) (A) (A) (A) (A) (A) (A)
                 (A) (A) (A) (A) (A) (A) (A) (A) (A) (A) (A) (A)
                 (A) (A) (A) (A) (A) (A) (A) (A) (A) (A) (A) (A)
                 (A) (A) (A) (A) (A) (A) (A) (A) (A) (A) (A) (A)
                 (A) (A) (A) (A) (A) (A) (A) (A) (A) (A) (A) (A)
                 (A) (A) (A) (A) (A) (A) (A) (A) (A) (A) (A) (A)
                 (A) (A) (A) (A) (A) (A) (A) (A) (A) (A) (A) (A)
                 (A) (A) (A) (A) (A) (A) (A) (A) (A) (A) (A) (A)
                 (A) (A) (A) (A) (A) (A) (A) (A) (A) (A) (A) (A)
                 (A) (A) (A) (A) (A) (A) (A) (A) (A) (A) (A) (A)
                 (A) (A) (A) (A) (A) (A) (A) (A) (A) (A) (A) (A)
                 (A) (A) (A) (A) (A) (A) (A) (A) (A) (A) (A) (A)
                 (A) (A) (A) (A) (A) (A) (A) (A) (A) (A) (A) (A)
                 (A) (A) (A) (A) (A) (A) (A) (A) (A) (A) (A) (A)
                 (A) (A) (A) (A) (A) (A) (A) (A) (A) (A) (A) (A)
                 (A) (A) (A) (A) (A) (A) (A) (A) (A) (A) (A) (A)
                 (A) (A) (A) (A) (A) (A) (A) (A) (A) (A) (A) (A)
                 (A)
 The electronic state is 1-A.
 Alpha  occ. eigenvalues --  -19.15497 -19.15464 -19.14022 -14.37943 -14.33908
 Alpha  occ. eigenvalues --  -14.31460 -14.30980 -14.30408 -10.28599 -10.26310
 Alpha  occ. eigenvalues --  -10.25308 -10.24451 -10.24407 -10.24361 -10.23794
 Alpha  occ. eigenvalues --  -10.23473 -10.20033 -10.19980  -1.08564  -1.05374
 Alpha  occ. eigenvalues --   -1.04367  -1.03414  -0.98432  -0.94200  -0.90256
 Alpha  occ. eigenvalues --   -0.86599  -0.80497  -0.78887  -0.76817  -0.70553
 Alpha  occ. eigenvalues --   -0.67018  -0.65563  -0.64988  -0.61851  -0.59585
 Alpha  occ. eigenvalues --   -0.57671  -0.56409  -0.54741  -0.54084  -0.51806
 Alpha  occ. eigenvalues --   -0.50897  -0.50599  -0.49532  -0.47458  -0.46804
 Alpha  occ. eigenvalues --   -0.45850  -0.44802  -0.43869  -0.43430  -0.42465
 Alpha  occ. eigenvalues --   -0.41071  -0.40255  -0.39791  -0.37234  -0.36367
 Alpha  occ. eigenvalues --   -0.35901  -0.35497  -0.33124  -0.31559  -0.30375
 Alpha  occ. eigenvalues --   -0.29498  -0.29101  -0.28849  -0.27112  -0.25894
 Alpha  occ. eigenvalues --   -0.22822
 Alpha virt. eigenvalues --   -0.03309  -0.02573  -0.01195  -0.00600  -0.00408
 Alpha virt. eigenvalues --   -0.00020   0.00905   0.01719   0.01872   0.02248
 Alpha virt. eigenvalues --    0.03103   0.03483   0.03670   0.04140   0.04344
 Alpha virt. eigenvalues --    0.05736   0.06123   0.06306   0.06972   0.07428
 Alpha virt. eigenvalues --    0.07723   0.08161   0.08839   0.09197   0.09614
 Alpha virt. eigenvalues --    0.09777   0.10122   0.10371   0.10905   0.11113
 Alpha virt. eigenvalues --    0.11348   0.11590   0.12106   0.12365   0.12642
 Alpha virt. eigenvalues --    0.12771   0.13213   0.13507   0.13607   0.13921
 Alpha virt. eigenvalues --    0.14160   0.14536   0.14683   0.15079   0.15342
 Alpha virt. eigenvalues --    0.15754   0.16098   0.16271   0.16616   0.17021
 Alpha virt. eigenvalues --    0.17436   0.17706   0.17872   0.18683   0.18825
 Alpha virt. eigenvalues --    0.19186   0.19428   0.19668   0.20657   0.21124
 Alpha virt. eigenvalues --    0.21225   0.21517   0.22244   0.22817   0.23108
 Alpha virt. eigenvalues --    0.23421   0.23878   0.24180   0.24518   0.25198
 Alpha virt. eigenvalues --    0.25396   0.25609   0.25761   0.26313   0.26594
 Alpha virt. eigenvalues --    0.26870   0.27016   0.27693   0.28095   0.28591
 Alpha virt. eigenvalues --    0.28784   0.29199   0.29480   0.29761   0.30093
 Alpha virt. eigenvalues --    0.30464   0.30755   0.31060   0.31724   0.31837
 Alpha virt. eigenvalues --    0.32185   0.32377   0.32990   0.33120   0.33603
 Alpha virt. eigenvalues --    0.34080   0.34654   0.34780   0.35450   0.35722
 Alpha virt. eigenvalues --    0.35942   0.35983   0.36835   0.37219   0.37770
 Alpha virt. eigenvalues --    0.38185   0.38685   0.38755   0.39214   0.40235
 Alpha virt. eigenvalues --    0.40823   0.41365   0.41595   0.42478   0.43733
 Alpha virt. eigenvalues --    0.44032   0.46426   0.47314   0.48766   0.49759
 Alpha virt. eigenvalues --    0.51424   0.52573   0.54180   0.55064   0.57238
 Alpha virt. eigenvalues --    0.57298   0.58030   0.58336   0.58987   0.59301
 Alpha virt. eigenvalues --    0.59719   0.60342   0.60439   0.61645   0.61916
 Alpha virt. eigenvalues --    0.63239   0.63385   0.65335   0.65681   0.66485
 Alpha virt. eigenvalues --    0.68053   0.68517   0.69460   0.70332   0.70788
 Alpha virt. eigenvalues --    0.71550   0.71998   0.72499   0.73284   0.74353
 Alpha virt. eigenvalues --    0.74876   0.75131   0.75648   0.77157   0.77306
 Alpha virt. eigenvalues --    0.78518   0.79570   0.80576   0.81512   0.82613
 Alpha virt. eigenvalues --    0.83747   0.84981   0.86153   0.86845   0.87700
 Alpha virt. eigenvalues --    0.87962   0.89234   0.91389   0.91865   0.92276
 Alpha virt. eigenvalues --    0.93764   0.94023   0.94445   0.95985   0.96985
 Alpha virt. eigenvalues --    0.97637   0.98847   0.99936   1.00345   1.00774
 Alpha virt. eigenvalues --    1.02118   1.02359   1.03470   1.03901   1.05107
 Alpha virt. eigenvalues --    1.05338   1.06947   1.08118   1.11210   1.11569
 Alpha virt. eigenvalues --    1.12850   1.14892   1.16249   1.16957   1.17868
 Alpha virt. eigenvalues --    1.19109   1.19782   1.20139   1.21079   1.22135
 Alpha virt. eigenvalues --    1.23880   1.25628   1.25942   1.27669   1.28486
 Alpha virt. eigenvalues --    1.28762   1.29754   1.31632   1.32857   1.33229
 Alpha virt. eigenvalues --    1.35417   1.38042   1.39025   1.40546   1.41984
 Alpha virt. eigenvalues --    1.42425   1.45732   1.46404   1.48108   1.50022
 Alpha virt. eigenvalues --    1.50576   1.51534   1.52816   1.53936   1.55078
 Alpha virt. eigenvalues --    1.56443   1.56786   1.57381   1.57643   1.59854
 Alpha virt. eigenvalues --    1.60429   1.61452   1.62160   1.64000   1.65088
 Alpha virt. eigenvalues --    1.65924   1.66582   1.66742   1.69353   1.70624
 Alpha virt. eigenvalues --    1.72085   1.72880   1.73471   1.73567   1.74589
 Alpha virt. eigenvalues --    1.75834   1.77052   1.77261   1.78831   1.81063
 Alpha virt. eigenvalues --    1.81393   1.81993   1.82805   1.83595   1.84068
 Alpha virt. eigenvalues --    1.85192   1.85889   1.87745   1.89726   1.91543
 Alpha virt. eigenvalues --    1.92614   1.93958   1.95564   1.96329   1.97286
 Alpha virt. eigenvalues --    1.99402   2.02610   2.04135   2.04581   2.06756
 Alpha virt. eigenvalues --    2.10420   2.11770   2.11964   2.12494   2.14354
 Alpha virt. eigenvalues --    2.14583   2.16122   2.18125   2.19998   2.21608
 Alpha virt. eigenvalues --    2.22145   2.23335   2.23590   2.24953   2.28407
 Alpha virt. eigenvalues --    2.29391   2.31177   2.32982   2.34024   2.36599
 Alpha virt. eigenvalues --    2.37701   2.41618   2.46034   2.47177   2.48133
 Alpha virt. eigenvalues --    2.50175   2.50867   2.52460   2.53630   2.54388
 Alpha virt. eigenvalues --    2.55448   2.56734   2.58903   2.60827   2.62854
 Alpha virt. eigenvalues --    2.64087   2.64613   2.66265   2.67103   2.67749
 Alpha virt. eigenvalues --    2.70505   2.72202   2.73152   2.74849   2.75008
 Alpha virt. eigenvalues --    2.77479   2.79011   2.80419   2.82322   2.83964
 Alpha virt. eigenvalues --    2.84443   2.85487   2.85818   2.87032   2.87410
 Alpha virt. eigenvalues --    2.88697   2.89149   2.90214   2.91657   2.91861
 Alpha virt. eigenvalues --    2.92737   2.95629   2.96467   2.98382   2.99830
 Alpha virt. eigenvalues --    3.00694   3.01265   3.02578   3.04398   3.07478
 Alpha virt. eigenvalues --    3.09919   3.11855   3.12145   3.14482   3.14853
 Alpha virt. eigenvalues --    3.17643   3.20899   3.22780   3.25325   3.26862
 Alpha virt. eigenvalues --    3.31254   3.32962   3.34673   3.36463   3.38496
 Alpha virt. eigenvalues --    3.39713   3.42687   3.49777   3.56126   3.61982
 Alpha virt. eigenvalues --    3.63822   3.67308   3.72655   3.74858   3.76667
 Alpha virt. eigenvalues --    3.78036   3.80376   3.85730   3.86930   3.88930
 Alpha virt. eigenvalues --    3.90051   3.92779   3.93811   3.94014   3.95423
 Alpha virt. eigenvalues --    3.97485   4.01059   4.03875   4.08667   4.11845
 Alpha virt. eigenvalues --    4.13455   4.19931   4.26015   4.34972   4.37712
 Alpha virt. eigenvalues --    4.51088   4.58517   4.70961   4.78161   4.94382
 Alpha virt. eigenvalues --    5.02332   5.08359   5.10354   5.10890   5.15343
 Alpha virt. eigenvalues --    5.29623   5.36209   5.39094   5.41947   5.43085
 Alpha virt. eigenvalues --    5.62597   5.66660   5.69676  23.74937  23.77536
 Alpha virt. eigenvalues --   23.79169  23.84127  23.84890  23.92590  23.94648
 Alpha virt. eigenvalues --   23.96685  23.98250  24.08234  35.54759  35.61276
 Alpha virt. eigenvalues --   35.67563  35.72627  35.75353  49.90796  49.92546
 Alpha virt. eigenvalues --   49.97219
          Condensed to atoms (all electrons):
               1          2          3          4          5          6
     1  O    7.896076   0.249818   0.003020  -0.028746  -0.114064   0.002518
     2  C    0.249818   7.188905  -0.607444  -0.255182  -0.297818  -0.048144
     3  C    0.003020  -0.607444   9.911906   0.300886  -3.816996  -0.191975
     4  O   -0.028746  -0.255182   0.300886   8.077287  -0.007802   0.010755
     5  C   -0.114064  -0.297818  -3.816996  -0.007802  11.051905   0.520678
     6  O    0.002518  -0.048144  -0.191975   0.010755   0.520678   7.946588
     7  C    0.057226  -0.223012   3.088049   0.015638  -3.929606  -0.192740
     8  C   -0.006945   0.373011  -3.046274  -0.034126   2.377715  -0.029880
     9  H    0.240116  -0.019040   0.056079   0.021522  -0.040549  -0.000600
    10  H   -0.102945   0.404306  -0.074362   0.033228   0.050758  -0.004004
    11  H   -0.010882   0.259457   0.009444  -0.029757   0.007445   0.001326
    12  H    0.006620  -0.146796   0.555660  -0.003792  -0.272086   0.005178
    13  H    0.012129  -0.060958  -0.002728   0.013188   0.344430  -0.007882
    14  H   -0.008461   0.053589  -0.046910  -0.001139  -0.039414   0.013819
    15  H    0.006746  -0.002338   0.018294  -0.092738  -0.080197  -0.002068
    16  H    0.001301  -0.014721  -0.008094  -0.001621   0.080593   0.216167
    17  H    0.002980  -0.012468   0.001661   0.013715  -0.049433  -0.017645
    18  N   -0.004715  -0.001018   0.133815  -0.052526  -0.083715   0.015105
    19  C    0.004200  -0.233389  -0.824331   0.040450   0.782033  -0.012998
    20  N   -0.000077   0.002048   0.022393  -0.000526  -0.014252   0.008282
    21  C   -0.000980   0.104035   0.163771  -0.034471  -0.368839  -0.005965
    22  C   -0.000286   0.029232   0.205976  -0.017298  -0.135039   0.000354
    23  N    0.000002  -0.000011  -0.000598   0.000294  -0.002207  -0.000005
    24  C   -0.000095  -0.002806  -0.016425   0.003255   0.037114   0.000708
    25  N   -0.000110   0.006584   0.033377   0.014076  -0.032690   0.000477
    26  C   -0.000616  -0.048816   0.211339   0.080491   0.082319   0.041970
    27  H    0.000978  -0.011728  -0.144066   0.007059   0.058203  -0.036489
    28  H    0.000001  -0.000237  -0.000906  -0.000037   0.002457   0.000015
    29  N   -0.000000   0.000297   0.001943  -0.000019  -0.000663  -0.000011
    30  H    0.000000  -0.000030  -0.000348   0.000026   0.000315  -0.000004
    31  H   -0.000000   0.000042   0.000413  -0.000029  -0.000111   0.000005
               7          8          9         10         11         12
     1  O    0.057226  -0.006945   0.240116  -0.102945  -0.010882   0.006620
     2  C   -0.223012   0.373011  -0.019040   0.404306   0.259457  -0.146796
     3  C    3.088049  -3.046274   0.056079  -0.074362   0.009444   0.555660
     4  O    0.015638  -0.034126   0.021522   0.033228  -0.029757  -0.003792
     5  C   -3.929606   2.377715  -0.040549   0.050758   0.007445  -0.272086
     6  O   -0.192740  -0.029880  -0.000600  -0.004004   0.001326   0.005178
     7  C   11.362420  -4.527974   0.031629  -0.018178   0.001371   0.221615
     8  C   -4.527974  12.307381  -0.043192  -0.017076   0.021311  -0.300787
     9  H    0.031629  -0.043192   0.503124   0.022636  -0.026402   0.004651
    10  H   -0.018178  -0.017076   0.022636   0.609852  -0.075266   0.000927
    11  H    0.001371   0.021311  -0.026402  -0.075266   0.661993  -0.006852
    12  H    0.221615  -0.300787   0.004651   0.000927  -0.006852   0.671731
    13  H    0.021179  -0.120364   0.000437  -0.007747   0.007527   0.031050
    14  H    0.405581  -0.019905  -0.001263   0.001594  -0.002198  -0.006850
    15  H   -0.090821   0.616325  -0.003779  -0.002963   0.004825  -0.008892
    16  H   -0.026528   0.005981  -0.000583  -0.002770   0.000943  -0.010329
    17  H    0.432070  -0.075221   0.000021  -0.001209   0.001138   0.001049
    18  N    0.127637  -0.299368  -0.001745  -0.000262  -0.003300   0.026073
    19  C   -0.677573   0.071401  -0.000467   0.005258   0.003306  -0.008877
    20  N    0.036353  -0.077724   0.000019   0.000011  -0.000378   0.003675
    21  C   -0.299505   0.514875  -0.000563  -0.004379   0.004862  -0.030154
    22  C    0.131599   0.233279  -0.000298  -0.000287  -0.000577   0.010208
    23  N   -0.001154   0.004023   0.000021  -0.000009   0.000040  -0.000043
    24  C   -0.020503  -0.115407  -0.000031   0.000084  -0.000189   0.000510
    25  N    0.084847  -0.082380   0.000051  -0.000121  -0.000164   0.002530
    26  C    0.781885  -1.698944   0.002093   0.003674  -0.005023   0.044600
    27  H   -0.155069   0.285067   0.000516   0.004314  -0.001419  -0.013516
    28  H   -0.003029  -0.002669  -0.000004   0.000008   0.000005  -0.000098
    29  N   -0.000866   0.000388  -0.000000   0.000002  -0.000016   0.000464
    30  H    0.000053  -0.001716  -0.000000  -0.000000   0.000003   0.000017
    31  H    0.000163   0.000323  -0.000000   0.000000  -0.000003   0.000036
              13         14         15         16         17         18
     1  O    0.012129  -0.008461   0.006746   0.001301   0.002980  -0.004715
     2  C   -0.060958   0.053589  -0.002338  -0.014721  -0.012468  -0.001018
     3  C   -0.002728  -0.046910   0.018294  -0.008094   0.001661   0.133815
     4  O    0.013188  -0.001139  -0.092738  -0.001621   0.013715  -0.052526
     5  C    0.344430  -0.039414  -0.080197   0.080593  -0.049433  -0.083715
     6  O   -0.007882   0.013819  -0.002068   0.216167  -0.017645   0.015105
     7  C    0.021179   0.405581  -0.090821  -0.026528   0.432070   0.127637
     8  C   -0.120364  -0.019905   0.616325   0.005981  -0.075221  -0.299368
     9  H    0.000437  -0.001263  -0.003779  -0.000583   0.000021  -0.001745
    10  H   -0.007747   0.001594  -0.002963  -0.002770  -0.001209  -0.000262
    11  H    0.007527  -0.002198   0.004825   0.000943   0.001138  -0.003300
    12  H    0.031050  -0.006850  -0.008892  -0.010329   0.001049   0.026073
    13  H    0.559647  -0.019655  -0.001860  -0.016713  -0.002109   0.004693
    14  H   -0.019655   0.501692  -0.011021  -0.004268  -0.006832   0.019006
    15  H   -0.001860  -0.011021   0.500871   0.000344   0.002194  -0.099334
    16  H   -0.016713  -0.004268   0.000344   0.495750   0.005508  -0.000177
    17  H   -0.002109  -0.006832   0.002194   0.005508   0.461458   0.003939
    18  N    0.004693   0.019006  -0.099334  -0.000177   0.003939   7.340741
    19  C    0.003557  -0.027537  -0.013024  -0.000627   0.006987  -0.049437
    20  N    0.000948   0.000159  -0.002757   0.000021   0.002005   0.030963
    21  C   -0.013425   0.009362   0.075578  -0.001965  -0.008976  -0.751748
    22  C   -0.002446   0.012673  -0.035261   0.000836  -0.006377   0.293722
    23  N   -0.000026  -0.000164   0.003850  -0.000008   0.000161  -0.007938
    24  C    0.001145  -0.002298  -0.008759   0.000109  -0.000494   0.031290
    25  N    0.000719   0.000458   0.016283  -0.000071   0.000226  -0.297197
    26  C    0.024901  -0.008714  -0.072714   0.001251   0.007265   0.469702
    27  H   -0.009401   0.001697   0.007643  -0.000153  -0.004668  -0.175727
    28  H    0.000026  -0.000064  -0.003550   0.000008  -0.000060   0.005334
    29  N   -0.000016   0.000109  -0.000479  -0.000000  -0.000175  -0.008122
    30  H    0.000005   0.000003  -0.000038  -0.000002   0.000026  -0.001705
    31  H   -0.000001   0.000019  -0.000136   0.000003  -0.000020   0.001510
              19         20         21         22         23         24
     1  O    0.004200  -0.000077  -0.000980  -0.000286   0.000002  -0.000095
     2  C   -0.233389   0.002048   0.104035   0.029232  -0.000011  -0.002806
     3  C   -0.824331   0.022393   0.163771   0.205976  -0.000598  -0.016425
     4  O    0.040450  -0.000526  -0.034471  -0.017298   0.000294   0.003255
     5  C    0.782033  -0.014252  -0.368839  -0.135039  -0.002207   0.037114
     6  O   -0.012998   0.008282  -0.005965   0.000354  -0.000005   0.000708
     7  C   -0.677573   0.036353  -0.299505   0.131599  -0.001154  -0.020503
     8  C    0.071401  -0.077724   0.514875   0.233279   0.004023  -0.115407
     9  H   -0.000467   0.000019  -0.000563  -0.000298   0.000021  -0.000031
    10  H    0.005258   0.000011  -0.004379  -0.000287  -0.000009   0.000084
    11  H    0.003306  -0.000378   0.004862  -0.000577   0.000040  -0.000189
    12  H   -0.008877   0.003675  -0.030154   0.010208  -0.000043   0.000510
    13  H    0.003557   0.000948  -0.013425  -0.002446  -0.000026   0.001145
    14  H   -0.027537   0.000159   0.009362   0.012673  -0.000164  -0.002298
    15  H   -0.013024  -0.002757   0.075578  -0.035261   0.003850  -0.008759
    16  H   -0.000627   0.000021  -0.001965   0.000836  -0.000008   0.000109
    17  H    0.006987   0.002005  -0.008976  -0.006377   0.000161  -0.000494
    18  N   -0.049437   0.030963  -0.751748   0.293722  -0.007938   0.031290
    19  C    8.720317   0.507882   1.324133  -3.625797   0.039516   0.161679
    20  N    0.507882   6.719121  -0.327579  -0.470130  -0.037730   0.048808
    21  C    1.324133  -0.327579  28.581667 -15.236029   1.263845  -0.845151
    22  C   -3.625797  -0.470130 -15.236029  23.009058  -0.318322  -0.237709
    23  N    0.039516  -0.037730   1.263845  -0.318322   6.897797   0.201397
    24  C    0.161679   0.048808  -0.845151  -0.237709   0.201397   5.683781
    25  N   -0.062234  -0.008106   0.984425  -0.539068   0.109189   0.101208
    26  C   -0.751144   0.756431  -9.618867   2.810988  -0.548270   0.420289
    27  H    0.596339  -0.111792   0.261982  -0.145966   0.004579  -0.004789
    28  H    0.003682   0.003385  -0.148611   0.065951  -0.139158   0.486201
    29  N   -0.052432   0.043430  -0.416150   0.469038  -0.256607   0.059811
    30  H    0.004920   0.010859   0.010570  -0.054212   0.012073  -0.001951
    31  H   -0.014531  -0.000082  -0.067726   0.048726  -0.008556   0.007045
              25         26         27         28         29         30
     1  O   -0.000110  -0.000616   0.000978   0.000001  -0.000000   0.000000
     2  C    0.006584  -0.048816  -0.011728  -0.000237   0.000297  -0.000030
     3  C    0.033377   0.211339  -0.144066  -0.000906   0.001943  -0.000348
     4  O    0.014076   0.080491   0.007059  -0.000037  -0.000019   0.000026
     5  C   -0.032690   0.082319   0.058203   0.002457  -0.000663   0.000315
     6  O    0.000477   0.041970  -0.036489   0.000015  -0.000011  -0.000004
     7  C    0.084847   0.781885  -0.155069  -0.003029  -0.000866   0.000053
     8  C   -0.082380  -1.698944   0.285067  -0.002669   0.000388  -0.001716
     9  H    0.000051   0.002093   0.000516  -0.000004  -0.000000  -0.000000
    10  H   -0.000121   0.003674   0.004314   0.000008   0.000002  -0.000000
    11  H   -0.000164  -0.005023  -0.001419   0.000005  -0.000016   0.000003
    12  H    0.002530   0.044600  -0.013516  -0.000098   0.000464   0.000017
    13  H    0.000719   0.024901  -0.009401   0.000026  -0.000016   0.000005
    14  H    0.000458  -0.008714   0.001697  -0.000064   0.000109   0.000003
    15  H    0.016283  -0.072714   0.007643  -0.003550  -0.000479  -0.000038
    16  H   -0.000071   0.001251  -0.000153   0.000008  -0.000000  -0.000002
    17  H    0.000226   0.007265  -0.004668  -0.000060  -0.000175   0.000026
    18  N   -0.297197   0.469702  -0.175727   0.005334  -0.008122  -0.001705
    19  C   -0.062234  -0.751144   0.596339   0.003682  -0.052432   0.004920
    20  N   -0.008106   0.756431  -0.111792   0.003385   0.043430   0.010859
    21  C    0.984425  -9.618867   0.261982  -0.148611  -0.416150   0.010570
    22  C   -0.539068   2.810988  -0.145966   0.065951   0.469038  -0.054212
    23  N    0.109189  -0.548270   0.004579  -0.139158  -0.256607   0.012073
    24  C    0.101208   0.420289  -0.004789   0.486201   0.059811  -0.001951
    25  N    6.947097   0.077698  -0.001856  -0.151574  -0.019515   0.000560
    26  C    0.077698  13.822743  -0.281722   0.106455   0.104926   0.007781
    27  H   -0.001856  -0.281722   0.605367  -0.000358  -0.001225  -0.000265
    28  H   -0.151574   0.106455  -0.000358   0.553763   0.008558  -0.000023
    29  N   -0.019515   0.104926  -0.001225   0.008558   6.729604   0.363769
    30  H    0.000560   0.007781  -0.000265  -0.000023   0.363769   0.382578
    31  H   -0.003571   0.023059  -0.000691   0.001221   0.344278  -0.020579
              31
     1  O   -0.000000
     2  C    0.000042
     3  C    0.000413
     4  O   -0.000029
     5  C   -0.000111
     6  O    0.000005
     7  C    0.000163
     8  C    0.000323
     9  H   -0.000000
    10  H    0.000000
    11  H   -0.000003
    12  H    0.000036
    13  H   -0.000001
    14  H    0.000019
    15  H   -0.000136
    16  H    0.000003
    17  H   -0.000020
    18  N    0.001510
    19  C   -0.014531
    20  N   -0.000082
    21  C   -0.067726
    22  C    0.048726
    23  N   -0.008556
    24  C    0.007045
    25  N   -0.003571
    26  C    0.023059
    27  H   -0.000691
    28  H    0.001221
    29  N    0.344278
    30  H   -0.020579
    31  H    0.380972
 Mulliken charges:
               1
     1  O   -0.204808
     2  C   -0.685370
     3  C    0.063433
     4  O   -0.072060
     5  C   -0.110484
     6  O   -0.233536
     7  C   -0.632756
     8  C   -0.311129
     9  H    0.255602
    10  H    0.174925
    11  H    0.177429
    12  H    0.222482
    13  H    0.239748
    14  H    0.186932
    15  H    0.279775
    16  H    0.279815
    17  H    0.243284
    18  N    0.334504
    19  C    0.078739
    20  N   -0.145660
    21  C    0.881981
    22  C   -0.496540
    23  N   -0.215981
    24  C    0.012171
    25  N   -0.181150
    26  C   -0.847030
    27  H    0.267157
    28  H    0.213306
    29  N   -0.370318
    30  H    0.287317
    31  H    0.308223
 Sum of Mulliken charges =  -0.00000
 Mulliken charges with hydrogens summed into heavy atoms:
               1
     1  O    0.050794
     2  C   -0.333016
     3  C    0.285915
     4  O   -0.072060
     5  C    0.129264
     6  O    0.046279
     7  C   -0.202540
     8  C   -0.031354
    18  N    0.334504
    19  C    0.345895
    20  N   -0.145660
    21  C    0.881981
    22  C   -0.496540
    23  N   -0.215981
    24  C    0.225477
    25  N   -0.181150
    26  C   -0.847030
    29  N    0.225222
 Electronic spatial extent (au):  <R**2>=           5191.5442
 Charge=              0.0000 electrons
 Dipole moment (field-independent basis, Debye):
    X=              2.5490    Y=              2.1072    Z=             -0.5891  Tot=              3.3592
 Quadrupole moment (field-independent basis, Debye-Ang):
   XX=           -100.3486   YY=           -108.2906   ZZ=           -102.0220
   XY=              1.7812   XZ=              2.3380   YZ=             -4.2141
 Traceless Quadrupole moment (field-independent basis, Debye-Ang):
   XX=              3.2051   YY=             -4.7369   ZZ=              1.5318
   XY=              1.7812   XZ=              2.3380   YZ=             -4.2141
 Octapole moment (field-independent basis, Debye-Ang**2):
  XXX=            -40.9640  YYY=             -8.8775  ZZZ=             -2.1474  XYY=             19.1753
  XXY=             86.4518  XXZ=            -40.6086  XZZ=             20.7682  YZZ=              0.1488
  YYZ=             -6.9356  XYZ=             -0.7931
 Hexadecapole moment (field-independent basis, Debye-Ang**3):
 XXXX=          -5238.2992 YYYY=          -1036.2634 ZZZZ=           -444.4730 XXXY=             12.2834
 XXXZ=            136.7524 YYYX=             14.1318 YYYZ=            -25.3572 ZZZX=             -4.0223
 ZZZY=              8.3086 XXYY=           -991.5677 XXZZ=           -911.3035 YYZZ=           -258.1849
 XXYZ=            -96.2318 YYXZ=             -3.9908 ZZXY=            -23.0464
 N-N= 1.363379265445D+03 E-N=-4.802845836026D+03  KE= 8.851818966951D+02
 Calling FoFJK, ICntrl=      2127 FMM=F ISym2X=0 I1Cent= 0 IOpClX= 0 NMat=1 NMatS=1 NMatT=0.
 ***** Axes restored to original set *****
 -------------------------------------------------------------------
 Center     Atomic                   Forces (Hartrees/Bohr)
 Number     Number              X              Y              Z
 -------------------------------------------------------------------
      1        8          -0.000000377   -0.000008316    0.000001598
      2        6          -0.000010083    0.000014141   -0.000006546
      3        6          -0.000033826   -0.000001143    0.000003600
      4        8           0.000035978    0.000049497    0.000034872
      5        6          -0.000002596   -0.000000355   -0.000003406
      6        8           0.000008774   -0.000011934    0.000006395
      7        6           0.000010131    0.000009892   -0.000004883
      8        6           0.000000572   -0.000028479   -0.000045266
      9        1          -0.000005239   -0.000003515    0.000004062
     10        1          -0.000001592    0.000000496    0.000001008
     11        1           0.000002365    0.000003525   -0.000000651
     12        1           0.000006944   -0.000007851    0.000001682
     13        1          -0.000002156   -0.000009005    0.000002590
     14        1           0.000000152   -0.000000510    0.000005211
     15        1          -0.000003125   -0.000000627   -0.000009120
     16        1           0.000000091   -0.000001593   -0.000003813
     17        1           0.000004527    0.000000900    0.000003524
     18        7          -0.000016487   -0.000006540    0.000013132
     19        6           0.000002733    0.000005397   -0.000002141
     20        7          -0.000003046    0.000000838   -0.000003435
     21        6           0.000000158   -0.000002058   -0.000001117
     22        6          -0.000002875   -0.000002275   -0.000001830
     23        7          -0.000000772   -0.000000244    0.000000342
     24        6           0.000000991   -0.000000486    0.000002529
     25        7          -0.000001112    0.000000680    0.000001816
     26        6           0.000003950   -0.000003049    0.000000370
     27        1           0.000002880   -0.000001277   -0.000001231
     28        1          -0.000000208   -0.000000423    0.000002693
     29        7           0.000000999    0.000001262    0.000001571
     30        1           0.000000329    0.000002556   -0.000002390
     31        1           0.000001919    0.000000498   -0.000001167
 -------------------------------------------------------------------
 Cartesian Forces:  Max     0.000049497 RMS     0.000010879

 GradGradGradGradGradGradGradGradGradGradGradGradGradGradGradGradGradGrad
 Berny optimization.
 FormGI is forming the generalized inverse of G from B-inverse, IUseBI=4.
 Internal  Forces:  Max     0.000019390 RMS     0.000005446
 Search for a local minimum.
 Step number   1 out of a maximum of  186
 All quantities printed in internal units (Hartrees-Bohrs-Radians)
 Mixed Optimization -- En-DIIS/RFO-DIIS
 Second derivative matrix not updated -- first step.
 ITU=  0
     Eigenvalues ---    0.00073   0.00108   0.00218   0.00324   0.00379
     Eigenvalues ---    0.00493   0.00633   0.00876   0.01293   0.01391
     Eigenvalues ---    0.01741   0.02140   0.02629   0.02779   0.02867
     Eigenvalues ---    0.03030   0.03522   0.03763   0.03997   0.04193
     Eigenvalues ---    0.04561   0.04827   0.05147   0.05235   0.05720
     Eigenvalues ---    0.05795   0.05805   0.05905   0.06261   0.06699
     Eigenvalues ---    0.07020   0.08137   0.09208   0.10202   0.10628
     Eigenvalues ---    0.11268   0.11491   0.11965   0.12692   0.13394
     Eigenvalues ---    0.14792   0.15154   0.16247   0.17089   0.18059
     Eigenvalues ---    0.18194   0.19276   0.19539   0.21122   0.21262
     Eigenvalues ---    0.22576   0.23147   0.23727   0.23971   0.24356
     Eigenvalues ---    0.25403   0.26435   0.27181   0.29242   0.30277
     Eigenvalues ---    0.30853   0.31720   0.31962   0.32379   0.33059
     Eigenvalues ---    0.33158   0.33811   0.34213   0.34629   0.35003
     Eigenvalues ---    0.35663   0.36726   0.37011   0.37644   0.38467
     Eigenvalues ---    0.39825   0.40502   0.42934   0.47630   0.47743
     Eigenvalues ---    0.48412   0.49775   0.51761   0.52382   0.52978
     Eigenvalues ---    0.55794   0.58205
 RFO step:  Lambda=-2.40672928D-07 EMin= 7.32499883D-04
 Linear search not attempted -- first point.
 Iteration  1 RMS(Cart)=  0.00180420 RMS(Int)=  0.00000125
 Iteration  2 RMS(Cart)=  0.00000271 RMS(Int)=  0.00000024
 Iteration  3 RMS(Cart)=  0.00000000 RMS(Int)=  0.00000024
 Variable       Old X    -DE/DX   Delta X   Delta X   Delta X     New X
                                 (Linear)    (Quad)   (Total)
    R1        2.68434   0.00001   0.00000   0.00002   0.00002   2.68437
    R2        1.82234  -0.00000   0.00000  -0.00001  -0.00001   1.82233
    R3        2.87706   0.00001   0.00000   0.00005   0.00005   2.87711
    R4        2.06623   0.00000   0.00000   0.00000   0.00000   2.06623
    R5        2.07258  -0.00000   0.00000  -0.00001  -0.00001   2.07258
    R6        2.71799   0.00001   0.00000   0.00007   0.00007   2.71806
    R7        2.93579  -0.00001   0.00000  -0.00008  -0.00008   2.93571
    R8        2.07565  -0.00000   0.00000  -0.00002  -0.00002   2.07563
    R9        2.68685   0.00002   0.00000   0.00006   0.00006   2.68691
   R10        2.70938  -0.00001   0.00000   0.00000   0.00000   2.70938
   R11        2.90316   0.00000   0.00000  -0.00012  -0.00012   2.90304
   R12        2.06400   0.00000   0.00000   0.00002   0.00002   2.06402
   R13        1.81859  -0.00000   0.00000   0.00000   0.00000   1.81859
   R14        2.90239  -0.00001   0.00000  -0.00003  -0.00003   2.90236
   R15        2.06115  -0.00000   0.00000  -0.00001  -0.00001   2.06115
   R16        2.05849   0.00000   0.00000  -0.00000  -0.00000   2.05849
   R17        2.05716   0.00000   0.00000   0.00002   0.00002   2.05718
   R18        2.76024  -0.00001   0.00000  -0.00003  -0.00003   2.76021
   R19        2.62475   0.00000   0.00000  -0.00001  -0.00001   2.62474
   R20        2.61570   0.00000   0.00000  -0.00000  -0.00000   2.61570
   R21        2.47301  -0.00000   0.00000  -0.00000  -0.00000   2.47301
   R22        2.04127  -0.00000   0.00000  -0.00001  -0.00001   2.04125
   R23        2.61384   0.00000   0.00000   0.00000   0.00000   2.61385
   R24        2.66082  -0.00000   0.00000  -0.00000  -0.00000   2.66082
   R25        2.63496  -0.00000   0.00000  -0.00000  -0.00000   2.63496
   R26        2.53730   0.00000   0.00000   0.00001   0.00001   2.53731
   R27        2.55987   0.00000   0.00000  -0.00002  -0.00002   2.55986
   R28        2.53366  -0.00000   0.00000  -0.00000  -0.00000   2.53365
   R29        2.52140   0.00000   0.00000   0.00000   0.00000   2.52141
   R30        2.05170  -0.00000   0.00000   0.00000   0.00000   2.05170
   R31        2.52432  -0.00000   0.00000   0.00001   0.00001   2.52432
   R32        1.90129   0.00000   0.00000  -0.00001  -0.00001   1.90129
   R33        1.90199   0.00000   0.00000  -0.00001  -0.00001   1.90199
    A1        1.86960   0.00001   0.00000   0.00006   0.00006   1.86966
    A2        1.95792   0.00002   0.00000   0.00008   0.00008   1.95800
    A3        1.86130  -0.00000   0.00000  -0.00001  -0.00001   1.86128
    A4        1.93885  -0.00001   0.00000  -0.00002  -0.00002   1.93882
    A5        1.91460  -0.00000   0.00000  -0.00001  -0.00001   1.91459
    A6        1.90618  -0.00001   0.00000  -0.00004  -0.00004   1.90614
    A7        1.88309   0.00000   0.00000   0.00000   0.00000   1.88309
    A8        1.87047   0.00002   0.00000   0.00011   0.00011   1.87057
    A9        2.01506   0.00000   0.00000  -0.00012  -0.00012   2.01494
   A10        1.90935  -0.00000   0.00000  -0.00007  -0.00007   1.90929
   A11        1.85936  -0.00001   0.00000   0.00019   0.00019   1.85955
   A12        1.91464  -0.00001   0.00000  -0.00022  -0.00022   1.91441
   A13        1.89298   0.00000   0.00000   0.00011   0.00011   1.89308
   A14        1.91956   0.00001   0.00000   0.00055   0.00054   1.92011
   A15        1.95953  -0.00001   0.00000  -0.00007  -0.00006   1.95946
   A16        1.81576   0.00001   0.00000   0.00012   0.00012   1.81588
   A17        1.93339  -0.00000   0.00000   0.00001   0.00001   1.93341
   A18        1.90204  -0.00001   0.00000  -0.00014  -0.00014   1.90190
   A19        1.91558   0.00001   0.00000   0.00005   0.00005   1.91563
   A20        1.93559  -0.00000   0.00000   0.00002   0.00002   1.93561
   A21        1.90896  -0.00000   0.00000  -0.00001  -0.00001   1.90896
   A22        1.83552  -0.00000   0.00000   0.00010   0.00010   1.83562
   A23        1.91622  -0.00001   0.00000  -0.00009  -0.00009   1.91612
   A24        1.94636   0.00001   0.00000  -0.00001  -0.00001   1.94635
   A25        1.88758   0.00000   0.00000   0.00003   0.00003   1.88761
   A26        1.98668  -0.00000   0.00000  -0.00011  -0.00011   1.98657
   A27        1.88998   0.00000   0.00000   0.00007   0.00007   1.89006
   A28        1.82539  -0.00000   0.00000   0.00022   0.00022   1.82561
   A29        1.86165   0.00001   0.00000   0.00011   0.00011   1.86177
   A30        1.95905  -0.00001   0.00000  -0.00017  -0.00017   1.95888
   A31        1.98668  -0.00000   0.00000  -0.00018  -0.00018   1.98650
   A32        1.99709   0.00000   0.00000   0.00008   0.00008   1.99716
   A33        1.83259   0.00000   0.00000  -0.00007  -0.00007   1.83252
   A34        2.26967   0.00001   0.00000  -0.00001  -0.00001   2.26966
   A35        2.16544  -0.00000   0.00000   0.00000   0.00000   2.16545
   A36        1.84486  -0.00000   0.00000   0.00001   0.00001   1.84487
   A37        1.98143  -0.00000   0.00000  -0.00000  -0.00000   1.98143
   A38        2.11236   0.00000   0.00000  -0.00003  -0.00003   2.11233
   A39        2.18935  -0.00000   0.00000   0.00003   0.00003   2.18939
   A40        1.82250   0.00000   0.00000  -0.00000  -0.00000   1.82250
   A41        2.31847  -0.00000   0.00000   0.00000   0.00000   2.31848
   A42        1.93832   0.00000   0.00000  -0.00000  -0.00000   1.93832
   A43        2.02638   0.00000   0.00000   0.00000   0.00000   2.02638
   A44        2.07201  -0.00000   0.00000   0.00000   0.00000   2.07201
   A45        2.13543   0.00000   0.00000  -0.00000  -0.00000   2.13543
   A46        2.07567  -0.00000   0.00000  -0.00000  -0.00000   2.07567
   A47        2.06941   0.00000   0.00000  -0.00000  -0.00000   2.06940
   A48        2.24131  -0.00000   0.00000   0.00000   0.00000   2.24131
   A49        2.01494   0.00000   0.00000  -0.00000  -0.00000   2.01494
   A50        2.02694   0.00000   0.00000  -0.00000  -0.00000   2.02694
   A51        1.94920   0.00000   0.00000   0.00000   0.00000   1.94920
   A52        1.83762  -0.00000   0.00000  -0.00000  -0.00000   1.83762
   A53        2.23743  -0.00000   0.00000   0.00001   0.00001   2.23744
   A54        2.20803   0.00000   0.00000  -0.00000  -0.00000   2.20802
   A55        2.09362   0.00000   0.00000   0.00009   0.00009   2.09371
   A56        2.07258   0.00000   0.00000   0.00009   0.00009   2.07268
   A57        2.09484  -0.00000   0.00000   0.00010   0.00010   2.09494
    D1        1.08840   0.00000   0.00000   0.00100   0.00100   1.08939
    D2       -3.09830   0.00001   0.00000   0.00102   0.00102  -3.09728
    D3       -1.05066   0.00000   0.00000   0.00101   0.00101  -1.04965
    D4       -1.07272   0.00001   0.00000  -0.00006  -0.00006  -1.07278
    D5        0.99525   0.00000   0.00000   0.00018   0.00018   0.99543
    D6        3.13575   0.00000   0.00000   0.00018   0.00018   3.13594
    D7       -3.13793   0.00000   0.00000  -0.00009  -0.00009  -3.13802
    D8       -1.06996  -0.00000   0.00000   0.00016   0.00016  -1.06980
    D9        1.07054  -0.00000   0.00000   0.00016   0.00016   1.07070
   D10        1.08473   0.00000   0.00000  -0.00006  -0.00006   1.08467
   D11       -3.13048   0.00000   0.00000   0.00018   0.00018  -3.13030
   D12       -0.98998   0.00000   0.00000   0.00018   0.00018  -0.98980
   D13        2.57707  -0.00001   0.00000  -0.00298  -0.00298   2.57409
   D14        0.41073  -0.00002   0.00000  -0.00300  -0.00300   0.40772
   D15       -1.63482  -0.00001   0.00000  -0.00312  -0.00312  -1.63794
   D16        2.07346  -0.00000   0.00000   0.00240   0.00240   2.07585
   D17       -2.15571  -0.00001   0.00000   0.00227   0.00227  -2.15343
   D18       -0.07495  -0.00000   0.00000   0.00237   0.00237  -0.07258
   D19       -2.13560   0.00001   0.00000   0.00259   0.00259  -2.13301
   D20       -0.08158   0.00001   0.00000   0.00247   0.00247  -0.07911
   D21        1.99918   0.00001   0.00000   0.00256   0.00256   2.00174
   D22       -0.07573  -0.00000   0.00000   0.00249   0.00249  -0.07324
   D23        1.97829  -0.00001   0.00000   0.00236   0.00236   1.98065
   D24       -2.22413  -0.00000   0.00000   0.00246   0.00246  -2.22167
   D25       -0.56409   0.00002   0.00000   0.00225   0.00225  -0.56184
   D26       -2.67433   0.00001   0.00000   0.00229   0.00229  -2.67204
   D27        1.61086   0.00001   0.00000   0.00240   0.00240   1.61325
   D28       -1.36153   0.00000   0.00000   0.00067   0.00067  -1.36086
   D29        2.91962  -0.00000   0.00000   0.00064   0.00064   2.92026
   D30        0.79686  -0.00000   0.00000   0.00068   0.00068   0.79753
   D31       -0.24045   0.00000   0.00000  -0.00115  -0.00115  -0.24160
   D32        1.78658   0.00000   0.00000  -0.00110  -0.00110   1.78548
   D33       -2.40180   0.00000   0.00000  -0.00108  -0.00108  -2.40288
   D34        1.85292  -0.00000   0.00000  -0.00123  -0.00123   1.85169
   D35       -2.40324  -0.00001   0.00000  -0.00118  -0.00118  -2.40442
   D36       -0.30843  -0.00000   0.00000  -0.00116  -0.00116  -0.30959
   D37       -2.31971   0.00000   0.00000  -0.00124  -0.00124  -2.32095
   D38       -0.29268  -0.00000   0.00000  -0.00120  -0.00120  -0.29388
   D39        1.80213   0.00000   0.00000  -0.00117  -0.00117   1.80096
   D40        0.48539  -0.00002   0.00000  -0.00059  -0.00059   0.48481
   D41        2.51053  -0.00000   0.00000  -0.00040  -0.00040   2.51012
   D42       -1.66515  -0.00000   0.00000  -0.00057  -0.00057  -1.66573
   D43       -1.56121  -0.00001   0.00000  -0.00055  -0.00055  -1.56175
   D44        0.46393   0.00000   0.00000  -0.00036  -0.00036   0.46357
   D45        2.57143   0.00001   0.00000  -0.00053  -0.00053   2.57090
   D46        2.62090  -0.00001   0.00000  -0.00059  -0.00059   2.62030
   D47       -1.63715  -0.00000   0.00000  -0.00041  -0.00041  -1.63756
   D48        0.47035   0.00000   0.00000  -0.00058  -0.00058   0.46977
   D49       -1.39610   0.00000   0.00000   0.00076   0.00076  -1.39534
   D50        1.64676   0.00000   0.00000   0.00079   0.00079   1.64755
   D51        0.68059  -0.00000   0.00000   0.00098   0.00098   0.68157
   D52       -2.55973  -0.00000   0.00000   0.00101   0.00101  -2.55872
   D53        2.87140  -0.00000   0.00000   0.00075   0.00075   2.87215
   D54       -0.36892  -0.00000   0.00000   0.00078   0.00078  -0.36814
   D55        3.06401   0.00000   0.00000   0.00004   0.00004   3.06405
   D56       -0.08685   0.00000   0.00000   0.00006   0.00006  -0.08679
   D57        0.00733   0.00000   0.00000   0.00001   0.00001   0.00734
   D58        3.13965  -0.00000   0.00000   0.00004   0.00004   3.13969
   D59       -3.07104  -0.00000   0.00000  -0.00003  -0.00003  -3.07107
   D60        0.08538  -0.00000   0.00000  -0.00004  -0.00004   0.08534
   D61       -0.00791  -0.00000   0.00000  -0.00001  -0.00001  -0.00792
   D62       -3.13468  -0.00000   0.00000  -0.00002  -0.00002  -3.13470
   D63       -0.00328  -0.00000   0.00000  -0.00001  -0.00001  -0.00329
   D64       -3.13512   0.00000   0.00000  -0.00004  -0.00004  -3.13516
   D65        3.13404   0.00000   0.00000   0.00001   0.00001   3.13405
   D66       -0.00209   0.00000   0.00000   0.00001   0.00001  -0.00209
   D67       -3.14040   0.00000   0.00000   0.00002   0.00002  -3.14038
   D68       -0.01208   0.00000   0.00000   0.00010   0.00010  -0.01198
   D69       -0.00448  -0.00000   0.00000   0.00002   0.00002  -0.00446
   D70        3.12384  -0.00000   0.00000   0.00011   0.00011   3.12395
   D71        0.00645  -0.00000   0.00000   0.00000   0.00000   0.00645
   D72        3.13355  -0.00000   0.00000   0.00001   0.00001   3.13356
   D73       -3.13068   0.00000   0.00000  -0.00001  -0.00001  -3.13069
   D74       -0.00358  -0.00000   0.00000   0.00001   0.00001  -0.00358
   D75        0.00862  -0.00000   0.00000  -0.00004  -0.00004   0.00858
   D76       -3.12016   0.00000   0.00000  -0.00012  -0.00012  -3.12029
   D77        0.12141  -0.00000   0.00000  -0.00077  -0.00077   0.12064
   D78        3.03862   0.00000   0.00000   0.00065   0.00065   3.03927
   D79       -3.03348  -0.00000   0.00000  -0.00069  -0.00069  -3.03417
   D80       -0.11627   0.00000   0.00000   0.00073   0.00073  -0.11553
   D81       -0.00571   0.00000   0.00000   0.00003   0.00003  -0.00568
   D82        3.13682  -0.00000   0.00000   0.00002   0.00002   3.13684
   D83       -0.00184  -0.00000   0.00000  -0.00000  -0.00000  -0.00184
   D84        3.13882  -0.00000   0.00000   0.00001   0.00001   3.13883
   D85        3.13033  -0.00000   0.00000  -0.00000  -0.00000   3.13033
   D86        0.00653   0.00000   0.00000  -0.00002  -0.00002   0.00651
[...]
 3603,0.00003048,-0.00000946,0.00001994,0.00002657,0.00005202,0.0000029
 0,0.00001434,0.00014550,0.00061844,-0.00036524,-0.00000257,0.00000370,
 -0.00000371,0.00000189,-0.00005121,0.00001425,0.00380555,0.00852438,-0
 .00152840,-0.00205242,-0.00018215,0.00160277,-0.00194283,-0.00225548,0
 .00422570,0.00221758,-0.01145452,0.01356471,-0.00086502,0.00819518,-0.
 00215047,-0.02437374,-0.01323433,0.02720742,-0.04980210,0.00200181,-0.
 08355047,0.07944301,0.05082254,0.11474704,0.00075801,0.00051573,-0.000
 23050,-0.00022737,-0.00085697,0.00007866,-0.00280849,0.00294188,0.0007
 9743,0.00897126,0.00197729,-0.00425664,-0.00010242,0.00151074,0.000725
 67,-0.00010506,-0.00147014,-0.00008439,0.00194811,-0.00043664,0.000310
 64,-0.03835140,-0.00292041,-0.00587811,-0.00053874,-0.00054822,0.00015
 752,0.00035024,0.00004784,-0.00001970,-0.00004115,0.00008322,-0.000030
 96,0.00011213,-0.00048076,-0.00029152,0.00029052,-0.00031722,-0.000134
 14,0.00077781,-0.00010103,0.00023703,0.00081599,0.00101200,0.00036633,
 -0.00011373,0.00019081,-0.00006150,-0.00000147,0.00048090,-0.00034242,
 -0.22982496,0.03934928,-0.02755443,-0.00088080,0.06916695,0.00951685,0
 .00469324,-0.01725559,-0.00511131,-0.18297452,-0.10411630,-0.04155015,
 -0.04248239,-0.02010217,-0.01193887,0.00372380,-0.00217423,0.00225817,
 -0.03490024,0.06263177,0.00261677,-0.11668758,0.02359342,-0.00785891,0
 .62961184,-0.00043449,-0.00032075,0.00016780,0.00001845,0.00057441,-0.
 00002255,0.00135718,-0.00189121,-0.00035741,-0.00688438,-0.00354595,0.
 00364828,0.00024805,-0.00122241,-0.00056059,0.00023827,0.00093592,0.00
 017684,-0.00340183,-0.00405954,-0.00129180,-0.00304293,0.02789980,-0.0
 0017748,0.00027213,0.00038552,-0.00010148,-0.00021122,-0.00005359,0.00
 002793,0.00000266,-0.00004794,0.00004504,0.00000432,0.00019247,0.00013
 103,-0.00015170,0.00025414,0.00016471,-0.00145636,0.00072026,-0.000907
 63,-0.00211847,-0.00144715,-0.00102053,0.00005687,-0.00006401,0.000021
 07,0.00033625,-0.00018221,0.00022227,0.02902196,-0.14416013,-0.0081397
 1,0.02805168,-0.06537433,-0.00624648,0.01829781,-0.06042547,-0.0088665
 8,-0.06517045,-0.20420031,-0.03613002,-0.04984818,0.05515771,-0.000554
 36,-0.03453480,-0.05555962,-0.01647412,0.09992665,-0.02658967,0.016873
 96,0.02835001,-0.32639968,-0.04187115,-0.05546843,0.80816946,0.0001268
 3,0.00000828,-0.00009259,0.00001554,-0.00012824,0.00005448,-0.00049718
 ,0.00052800,0.00003384,0.00408294,0.00167822,-0.00111758,-0.00025707,0
 .00016124,-0.00027236,0.00003278,-0.00012451,0.00003824,-0.00271675,-0
 .00159147,-0.00049249,-0.00879924,0.00350144,-0.00440344,-0.00012077,-
 0.00008802,0.00005064,0.00008325,0.00002085,-0.00001491,0.00000255,0.0
 0001461,-0.00001704,0.00012262,-0.00015165,-0.00005630,-0.00000347,0.0
 0001958,0.00007396,-0.00064986,0.00018045,-0.00028827,-0.00029146,0.00
 025203,0.00001002,-0.00000681,0.00002066,-0.00002571,0.00013186,-0.000
 11484,0.00014236,-0.03217985,-0.00473313,-0.06565289,0.00209627,0.0013
 6811,0.01160395,0.00185963,-0.01733083,0.01101962,-0.03443308,-0.04468
 043,-0.09333871,-0.01816598,0.00614482,-0.00596593,-0.00359663,-0.0092
 1751,-0.01018989,0.00926360,0.00857085,0.00771480,-0.00748199,-0.04289
 493,-0.07041122,0.09291138,0.10097256,0.20423156,0.00004609,0.00019505
 ,-0.00004816,-0.00013739,-0.00005930,0.00001903,0.00030012,-0.00047143
 ,0.00027546,-0.00089108,0.00028448,0.00022437,-0.00049093,-0.00264864,
 -0.00051949,-0.00181339,0.00121598,-0.00007215,-0.00017248,-0.00017567
 ,-0.00048708,0.00170642,0.00101398,0.00039654,0.00002631,-0.00004673,0
 .00000843,-0.00005269,-0.00000850,0.00003539,0.00004704,0.00006334,-0.
 00005362,-0.00013071,-0.00016484,0.00017005,0.00016821,0.00058777,0.00
 002826,-0.00011183,0.00001710,0.00012602,-0.00007850,0.00002890,-0.000
 05515,0.00008111,0.00065661,0.00023784,-0.00007296,-0.00033562,-0.0000
 6211,0.01019996,-0.00864857,0.00073972,-0.21809041,0.14909048,-0.01720
 844,-0.01821802,0.01643041,-0.00040781,-0.00269269,-0.00182053,-0.0028
 1671,-0.00032495,0.00080970,-0.00031940,-0.00047331,0.00019185,0.00016
 670,-0.00008768,-0.00048246,-0.00005203,0.00121111,-0.00011175,-0.0001
 9071,-0.00089385,-0.00262113,-0.00126135,0.23055475,0.00013269,0.00013
 093,0.00002000,-0.00016886,0.00000509,0.00013867,-0.00001640,-0.000447
 89,-0.00027446,-0.00045080,-0.00008418,0.00029327,-0.00153708,-0.00002
 959,-0.00026659,0.00180249,-0.00153828,0.00000152,-0.00036525,-0.00007
 044,0.00001403,0.00148899,0.00013133,0.00013756,-0.00000581,-0.0000378
 2,0.00000769,0.00001238,-0.00000992,-0.00000346,0.00001536,0.00001476,
 -0.00001877,-0.00006720,0.00014348,0.00029817,0.00001151,-0.00019216,0
 .00004547,0.00005588,0.00015662,-0.00003908,-0.00016465,-0.00002936,-0
 .00009441,0.00052735,0.00020585,0.00021089,-0.00008048,0.00006324,-0.0
 0032986,0.02284204,-0.01636412,0.00257647,0.14336104,-0.18834171,0.006
 14784,-0.00824793,0.01220929,0.00089019,-0.00300675,0.00165635,-0.0018
 8588,0.00087524,0.00072152,0.00001840,-0.00015871,0.00063271,0.0002604
 8,-0.00068284,-0.00047744,-0.00020658,0.00201092,-0.00053426,0.0000285
 3,-0.00486375,-0.00287447,-0.00200589,-0.15332386,0.19505508,-0.000105
 21,-0.00011350,-0.00008235,0.00008993,0.00002573,-0.00010638,0.0001991
 8,0.00042264,0.00043369,0.00009072,-0.00006407,-0.00048458,-0.00023195
 ,-0.00033483,0.00026667,-0.00063030,-0.00024806,-0.00133125,-0.0002896
 1,-0.00014968,0.00030124,0.00052936,0.00027106,-0.00015001,-0.00000717
 ,0.00000588,0.00002379,0.00000352,0.00000113,0.00000937,0.00000595,0.0
 0002224,-0.00001487,0.00021908,0.00006114,-0.00031042,0.00001608,0.000
 08475,-0.00006271,0.00012471,0.00011530,-0.00008043,0.00002181,0.00005
 458,-0.00009039,0.00060743,0.00028983,0.00023956,-0.00023474,-0.000243
 88,-0.00050840,0.00638232,-0.00534454,0.00101919,-0.01854159,0.0078344
 6,-0.03581477,-0.00451472,0.00651869,-0.00375569,-0.00316536,-0.001545
 93,0.00764697,-0.00023880,-0.00000019,0.00163950,0.00010162,0.00038582
 ,-0.00093772,-0.00014888,-0.00016966,-0.00022387,0.00024242,-0.0005234
 3,0.00188502,-0.00160740,-0.00145188,0.00144054,0.02096828,-0.00597707
 ,0.02914079,-0.00002369,-0.00003483,0.00000269,0.00001348,0.00003311,-
 0.00000281,0.00003813,-0.00003662,-0.00000698,-0.00012377,-0.00001898,
 0.00008074,0.00000597,0.00000083,-0.00001289,-0.00002404,0.00001222,-0
 .00000485,-0.00002139,-0.00003161,0.00001109,0.00031464,0.00015331,-0.
 00006826,0.00000888,0.00002526,-0.00000651,-0.00000530,-0.00000371,0.0
 0000033,-0.00000208,-0.00000304,0.00000358,-0.00000165,0.00000544,0.00
 000010,-0.00000857,0.00000486,0.00000234,-0.00002316,0.00000427,-0.000
 01038,0.00002749,0.00002184,0.00003068,0.00000267,-0.00000430,0.000003
 62,0.00000388,-0.00000066,0.00000962,0.00019235,0.00171588,0.00017683,
 -0.00060955,-0.00030302,-0.00010920,0.00039820,0.00018446,0.00042024,-
 0.00032130,-0.00012948,-0.00001357,-0.00111202,-0.00450949,-0.00295086
 ,0.00377678,-0.02673708,-0.00398979,-0.07499470,0.08177312,0.00769275,
 -0.01868477,0.03178591,0.00155135,-0.00459942,0.00182969,-0.00288499,0
 .00007321,0.00012164,0.00008117,0.09507672,0.00002888,0.00002857,-0.00
 000470,-0.00001543,-0.00002771,0.00000710,-0.00005119,0.00004062,0.000
 00608,0.00014276,0.00002215,-0.00007817,-0.00000631,0.00000385,0.00001
 038,0.00002904,-0.00002316,0.00000826,0.00001941,0.00001375,-0.0000227
 1,-0.00023939,-0.00013564,0.00001729,-0.00001569,-0.00001852,0.0000058
 7,0.00000691,0.00000142,-0.00000025,-0.00000002,0.00000358,-0.00000213
 ,0.00000152,-0.00000614,0.00000127,0.00001014,-0.00000498,-0.00000233,
 0.00001895,-0.00000159,0.00000613,-0.00003664,-0.00000230,-0.00002089,
 -0.00000411,0.00000802,-0.00000406,-0.00000256,-0.00000043,-0.00000999
 ,0.00040188,-0.00038392,-0.00015293,0.00023826,0.00024123,0.00016153,-
 0.00009642,-0.00004725,0.00020762,-0.00036776,0.00012342,0.00000986,-0
 .00209123,0.00016242,-0.00200110,-0.00207051,-0.02429717,-0.00484084,0
 .08248386,-0.29697340,-0.02683584,0.00617326,-0.00278866,0.00092403,0.
 00059452,0.00309910,-0.00098514,-0.00001962,-0.00001301,0.00002869,-0.
 08527105,0.32209603,-0.00000180,-0.00000063,-0.00000988,0.00000390,-0.
 00000221,0.00000842,0.00000257,0.00000413,0.00000695,-0.00001271,-0.00
 002163,-0.00001279,-0.00000341,-0.00000062,0.00000666,0.00000173,0.000
 00631,-0.00000655,-0.00000093,0.00000764,0.00000907,0.00000413,0.00002
 090,0.00013307,-0.00000010,-0.00000108,0.00000727,-0.00000070,0.000000
 45,-0.00000033,0.00000016,0.00000095,-0.00000362,-0.00000256,-0.000004
 16,-0.00000289,-0.00000055,0.00000037,-0.00000029,-0.00000387,-0.00000
 037,-0.00000238,0.00003727,-0.00000005,-0.00001456,-0.00000087,-0.0000
 0217,0.00000137,-0.00000313,-0.00000019,-0.00000316,-0.00008169,0.0000
 9846,0.00099123,-0.00003921,0.00003971,-0.00036675,0.00038696,0.000222
 37,-0.00119314,-0.00008349,0.00008934,-0.00040125,-0.00253697,-0.00259
 705,0.00751715,0.00049292,-0.01034831,-0.00135177,0.00753762,-0.026964
 92,-0.04751425,-0.00277536,0.00663312,0.00053453,-0.00314905,-0.000640
 05,0.00868825,0.00005751,0.00005597,-0.00017240,0.00001419,0.03374881,
 0.03307679,-0.00035983,-0.00026749,0.00008237,0.00020202,0.00023229,-0
 .00011521,0.00065003,-0.00053695,-0.00010865,-0.00162871,-0.00003810,0
 .00076449,0.00018055,-0.00015366,-0.00009606,-0.00044196,0.00046998,-0
 .00011500,-0.00027082,-0.00026000,0.00011114,0.00234999,0.00174930,-0.
 00023277,0.00020909,0.00016764,-0.00006675,-0.00010013,0.00000931,-0.0
 0000293,0.00001601,-0.00005078,0.00001462,0.00002267,0.00007420,-0.000
 03702,-0.00011816,0.00005699,0.00001673,-0.00020755,0.00000612,-0.0000
 6148,0.00006332,-0.00006811,0.00011043,0.00002852,-0.00018213,0.000041
 42,0.00007616,-0.00001817,0.00016069,-0.00216828,-0.00012228,-0.000283
 91,-0.00437966,0.00003939,-0.00086747,0.00582645,-0.00184009,0.0009430
 7,-0.04910307,-0.03592906,-0.01876442,-0.25630387,-0.10312929,-0.06151
 225,0.02260220,-0.00740387,0.00256577,-0.00721453,0.00635251,-0.002273
 94,0.00430371,-0.01178675,-0.00050225,0.00347920,0.01678185,0.00271262
 ,0.00033861,-0.00014669,0.00001462,0.00086882,0.00028092,0.00022660,0.
 76741076,-0.00024009,-0.00014688,0.00006542,0.00012782,0.00012700,-0.0
 0008784,0.00046576,-0.00039187,-0.00009698,-0.00103881,0.00018324,0.00
 044487,0.00011133,-0.00014311,-0.00006581,-0.00029885,0.00040044,-0.00
 007710,-0.00006144,0.00000271,0.00017327,0.00176858,0.00034154,-0.0001
 3166,0.00015509,0.00009251,-0.00004660,-0.00007502,0.00001317,-0.00000
 224,0.00001699,-0.00003580,0.00000525,0.00001027,0.00006259,-0.0000137
 4,-0.00008234,0.00004408,0.00000956,-0.00007150,-0.00002291,-0.0000055
 6,0.00026337,-0.00001228,0.00014720,0.00001398,-0.00014147,0.00002929,
 0.00003963,-0.00000181,0.00008949,0.00216074,0.00099724,0.00084251,-0.
 00218854,0.00341627,0.00020731,-0.00009564,0.00108657,0.00025340,-0.00
 852973,0.00934060,-0.00222059,-0.10226261,-0.21897461,-0.04974638,-0.0
 3646592,-0.07147430,-0.02094790,0.00865715,0.00544655,0.00197187,-0.00
 723921,-0.00510766,-0.00206169,0.00851229,0.00061977,0.00086071,0.0003
 5966,-0.00011867,0.00004386,-0.00048281,-0.00110880,-0.00036673,-0.092
 44847,0.80712110,-0.00006652,-0.00004359,0.00006847,0.00003533,0.00005
 008,-0.00006020,0.00013086,-0.00013861,-0.00007124,-0.00034215,0.00001
 990,0.00029480,0.00004243,-0.00001263,-0.00004416,-0.00009947,0.000088
 13,0.00003704,-0.00005180,-0.00004984,0.00003048,0.00060624,0.00036932
 ,-0.00032793,0.00004817,0.00003923,-0.00003459,-0.00002592,0.00000115,
 -0.00000222,-0.00000139,-0.00002460,0.00002053,-0.00000494,0.00003818,
 -0.00000467,-0.00002545,0.00001476,0.00000924,-0.00003962,0.00000237,-
 0.00000935,0.00004657,-0.00001386,0.00000901,-0.00000836,-0.00003710,-
 0.00001894,0.00001737,-0.00002490,0.00003975,-0.00006014,0.00006896,-0
 .00081400,-0.00071138,0.00033786,-0.00034294,0.00106113,-0.00007676,-0
 .00017100,-0.01248391,-0.00801456,0.00694199,-0.07133831,-0.05969722,-
 0.06721484,-0.00355379,-0.01342469,0.00383638,-0.00143755,0.00030907,0
 .00612208,0.00034664,-0.00160427,-0.00326857,-0.00003126,0.00165811,0.
 00547048,0.00007277,-0.00003885,0.00007838,-0.00001420,-0.00017312,0.0
 0019515,0.18526826,0.15178580,0.10479378,0.00004545,0.00004927,0.00000
 317,-0.00002963,-0.00004065,0.00000712,-0.00004790,0.00002570,-0.00001
 906,0.00018139,0.00005852,-0.00008980,-0.00002090,-0.00002946,-0.00000
 304,0.00006892,0.00000259,0.00003421,0.00001188,0.00001864,-0.00000461
 ,-0.00041051,-0.00008363,-0.00002993,-0.00001895,-0.00002508,0.0000044
 5,0.00000708,0.00000036,0.00000033,-0.00000009,0.00000340,-0.00000072,
 -0.00000144,0.00000172,0.00001047,0.00001331,0.00000193,0.00000100,0.0
 0002104,0.00000218,0.00000600,0.00009277,0.00003403,0.00002442,-0.0000
 1152,0.00001389,-0.00001142,-0.00001014,-0.00000698,-0.00001959,0.0007
 2367,0.00133439,0.00035549,-0.00149765,0.00012260,-0.00024291,0.001633
 46,-0.00020357,0.00062679,-0.00145367,-0.00190373,-0.00049881,0.015604
 36,-0.02351214,-0.00228960,-0.00403675,-0.00408641,-0.00207980,0.00141
 378,-0.00070853,-0.00033934,-0.00061116,-0.00006548,0.00000544,0.00101
 994,0.00011640,0.00039311,0.00003581,0.00001377,0.00001644,-0.00024104
 ,-0.00023022,-0.00007963,-0.09936521,0.10539360,0.00294809,0.08622386,
 0.00004406,0.00002204,-0.00000675,-0.00002436,-0.00002047,0.00000881,-
 0.00009967,0.00008722,0.00001874,0.00023850,-0.00000813,-0.00008500,-0
 .00002291,0.00006583,0.00001516,0.00004824,-0.00011446,0.00001160,0.00
 003700,0.00002870,-0.00002007,-0.00031461,-0.00023117,-0.00001929,-0.0
 0002776,-0.00001609,0.00000538,0.00001618,-0.00000269,0.00000016,-0.00
 000417,0.00000395,0.00000197,-0.00000482,-0.00000911,-0.00000069,0.000
 01456,-0.00001326,-0.00000257,0.00002369,-0.00000270,0.00000713,-0.000
 02696,0.00000700,-0.00001404,0.00000326,0.00003584,-0.00000485,-0.0000
 1056,0.00000592,-0.00001606,0.00034037,-0.00015541,0.00000263,0.000743
 38,-0.00012317,0.00020369,-0.00075506,0.00037774,-0.00006308,0.0019051
 5,0.00092236,0.00112758,0.00494372,-0.01745670,-0.00317085,-0.00255734
 ,-0.00041657,-0.00155557,0.00043545,-0.00058390,-0.00042209,-0.0002008
 1,0.00096362,0.00024775,-0.00068038,-0.00157249,-0.00020781,-0.0000162
 3,0.00005458,-0.00000853,-0.00016382,-0.00006147,-0.00001129,0.1010965
 6,-0.41565962,-0.08877282,-0.10180028,0.43484868,-0.00000294,-0.000005
 50,-0.00002788,0.00000512,-0.00000019,0.00002131,0.00000392,0.00002537
 ,0.00002894,0.00002091,-0.00000153,-0.00008942,-0.00000846,-0.00002097
 ,0.00001345,0.00001011,0.00001977,-0.00003601,0.00000417,0.00000739,0.
 00000656,-0.00012319,-0.00004120,0.00016045,-0.00000214,-0.00000444,0.
 00001108,0.00000259,0.00000045,0.00000083,0.00000246,0.00000845,-0.000
 00982,0.00000187,-0.00001281,-0.00000119,0.00000096,0.00000081,-0.0000
 0312,0.00000452,-0.00000399,0.00000220,0.00004272,0.00001304,0.0000048
 0,0.00000840,-0.00000137,0.00001870,-0.00000482,0.00000594,-0.00000582
 ,0.00024198,0.00031793,0.00036921,-0.00033407,0.00021091,-0.00033470,0
 .00057555,0.00018015,-0.00063435,-0.00055486,-0.00058042,-0.00086936,0
 .00696904,-0.00329299,-0.00518020,-0.00147854,-0.00168491,0.00173270,-
 0.00010139,-0.00029846,0.00292038,-0.00008772,-0.00002242,-0.00091908,
 0.00047210,0.00011243,-0.00027069,0.00001146,-0.00000361,0.00004537,-0
 .00002589,-0.00002837,-0.00011817,0.00284788,-0.09901832,-0.02433104,-
 0.00896488,0.09338616,0.02948695,0.00005093,0.00004348,0.00000009,-0.0
 0003316,-0.00003318,0.00000568,-0.00007366,0.00004475,0.00000192,0.000
 16321,-0.00000979,-0.00005158,-0.00001720,0.00000268,0.00000479,0.0000
 5995,-0.00003940,0.00002528,0.00000762,-0.00001486,-0.00002334,-0.0003
 1592,-0.00000811,0.00000915,-0.00002660,-0.00002161,0.00000507,0.00001
 048,-0.00000187,0.00000121,-0.00000252,0.00000408,0.00000131,-0.000002
 37,-0.00000167,0.00000636,0.00001537,-0.00000406,0.00000050,0.00001390
 ,0.00000823,-0.00000117,-0.00000823,0.00000562,-0.00001451,-0.00000976
 ,0.00001993,-0.00001092,-0.00000905,0.00000090,-0.00001850,-0.00024547
 ,-0.00025673,0.00003528,0.00018256,-0.00023155,-0.00003334,0.00041264,
 0.00015796,0.00025591,0.00161147,-0.00337424,-0.00134556,-0.02519626,0
 .00642653,-0.00640953,0.00248392,0.00367863,0.00212285,-0.00065889,-0.
 00079353,0.00030604,0.00077879,0.00064567,0.00009214,-0.00101847,0.000
 43413,-0.00048850,-0.00005586,0.00001576,0.00000107,-0.00000477,0.0000
 8782,0.00001045,-0.38696634,0.12352474,-0.10032768,0.00065983,-0.00318
 035,0.00046313,0.40819386,-0.00000792,-0.00001272,0.00000382,0.0000054
 3,0.00001080,-0.00000570,0.00000621,-0.00000156,0.00000229,-0.00002893
 ,-0.00002053,0.00002142,0.00000878,0.00000996,-0.00000158,-0.00001271,
 -0.00000571,-0.00000049,-0.00001801,-0.00002390,-0.00000498,-0.0000165
 7,0.00014760,-0.00000804,0.00000249,0.00000816,-0.00000332,-0.00000083
 ,-0.00000147,0.00000002,-0.00000107,-0.00000193,0.00000268,0.00000215,
 -0.00000061,-0.00000429,-0.00000236,0.00000007,0.00000042,-0.00000903,
 0.00000282,-0.00000581,-0.00000363,0.00000168,-0.00000075,-0.00000028,
 -0.00000070,-0.00000108,0.00000401,-0.00000110,0.00000684,0.00001527,-
 0.00029527,0.00004573,-0.00039024,0.00019730,-0.00006441,0.00062554,-0
 .00000030,0.00020483,-0.00282882,-0.00474011,-0.00212286,-0.02434511,0
 .01682150,-0.00468319,0.00162401,0.00179778,0.00156442,-0.00064021,-0.
 00105536,-0.00022104,0.00132199,-0.00081780,0.00009074,-0.00081641,0.0
 0198239,-0.00004801,0.00000956,-0.00001750,0.00000945,0.00005867,0.000
 04998,0.00003295,0.12706483,-0.11595562,0.01736450,0.02550318,-0.00097
 608,0.01073269,-0.12712996,0.10289823,-0.00000750,-0.00000765,-0.00001
 740,0.00000540,0.00000202,0.00001224,0.00000881,0.00000652,0.00001719,
 0.00000957,0.00002001,-0.00003395,-0.00000044,-0.00001275,0.00000251,-
 0.00000680,0.00001803,-0.00001758,-0.00002602,-0.00002628,-0.00001318,
 0.00003024,0.00005704,-0.00003824,0.00000169,0.00000022,0.00000703,-0.
 00000022,0.00000073,-0.00000020,0.00000145,0.00000411,-0.00000626,0.00
 000116,-0.00000830,-0.00000278,-0.00000289,0.00000106,0.00000018,-0.00
 001706,-0.00000014,-0.00000185,-0.00000390,-0.00000549,0.00000398,0.00
 000374,-0.00000547,0.00001023,-0.00000055,-0.00000048,0.00000578,0.000
 07229,0.00011145,-0.00046500,-0.00026774,0.00003147,-0.00000119,0.0004
 3178,-0.00000913,-0.00034092,-0.00162981,-0.00204644,0.00327452,-0.005
 06199,0.00643095,-0.00357526,0.00167366,0.00109089,-0.00259145,-0.0001
 8063,-0.00015480,-0.00095496,0.00047433,-0.00050503,0.00021183,-0.0003
 1730,0.00059179,0.00203728,0.00001638,-0.00000067,-0.00004384,0.000019
 87,0.00001965,-0.00000172,-0.11084058,0.01795935,-0.03123187,0.0102366
 5,-0.00065540,-0.00199205,0.10537640,-0.02290725,0.03574695\\0.0000000
 8,-0.00000066,-0.00000154,-0.00000003,-0.00000146,-0.00000065,0.000000
 02,-0.00000079,0.,0.00000004,-0.00000049,-0.00000094,-0.00000002,0.000
 00046,0.00000063,-0.00000010,0.00000041,0.00000195,0.00000004,0.000001
 41,0.00000008,0.00000003,0.00000062,-0.00000059,0.00000012,-0.00000047
 ,-0.00000215,-0.00000005,-0.00000166,0.00000003,0.,-0.00000228,-0.0000
 0106,-0.00000009,-0.00000140,0.00000068,-0.00000001,0.00000070,0.00000
 048,0.00000010,0.00000194,-0.00000062,0.00000013,0.00000102,-0.0000014
 9,-0.00000015,-0.00000002,0.00000235,0.00000002,0.00000203,0.00000075,
 0.,0.00000041,0.00000007,-0.00000006,0.00000018,0.00000133,-0.00000011
 ,-0.00000009,0.00000163,-0.00000003,0.00000002,0.00000052,-0.00000002,
 -0.00000010,0.00000023,0.00000005,0.00000004,-0.00000094,0.00000013,0.
 00000032,-0.00000178,0.00000012,0.00000047,-0.00000162,0.00000007,0.00
 000032,-0.00000042,-0.00000012,0.00000017,0.00000195,0.00000018,0.0000
 0044,-0.00000272,-0.00000009,-0.00000039,0.00000109,-0.00000014,-0.000
 00060,0.00000195,-0.00000008,-0.00000055,0.00000080\\\@


 BE CAREFUL NOT TO BECOME TOO GOOD OF A SONGBIRD OR 
 THEY'LL THROW YOU INTO A CAGE.

                                    -- SNOOPY TO WOODSTOCK
 Job cpu time:       0 days  4 hours 33 minutes 45.7 seconds.
 Elapsed time:       0 days  0 hours 17 minutes  9.6 seconds.
 File lengths (MBytes):  RWF=    661 Int=      0 D2E=      0 Chk=     20 Scr=      1
 Normal termination of Gaussian 16 at Sun Jul 24 14:40:56 2022.
